HYBRID 2.0 -- [ Lio-hybrid ] (22 Dec 2017)
Compiler flags: gfortran -cpp
SERIAL version
>> Start of run:   4-APR-2018  17:45:33

                           ***********************       
                           *  WELCOME TO HYBRID  *       
                           ***********************       

reinit: Reading from standard input
************************** Dump of input data file ****************************
SystemName     cut5
SystemLabel    cut5
CenterMolecule T
NumberOfAtoms         4
NumberOfSpecies      2
NetCharge 0.0
FixSpin  T
TotalSpin 0.0
MD.MaxForceTol    0.04 eV/Ang
NumberOfSolventAtoms      0
%block ConstrainedOpt
nconstr 1
steps 99
type 2
kte 200
inicoord 1.2 fincoord  5.000
atoms 1 2
%endblock ConstrainedOpt
%block ChemicalSpeciesLabel
       1   8  O
       2   1  H
%endblock ChemicalSpeciesLabel
AtomicCoordinatesFormat  Ang
%block AtomicCoordinatesAndAtomicSpecies
   0.00000   0.00000   0.000000        1
   0.00000   0.00000   1.480000        1
   0.89567   0.00000  -0.316663        2
  -0.44783   0.77567   1.796667        2
%endblock AtomicCoordinatesAndAtomicSpecies
%block SoluteAtomTypes
  OH  O1    AOX
  OH  O2    AOX
  HO  H1    AOX
  HO  H2    AOX
%endblock SoluteAtomTypes
PAO.BasisType split
PAO.BasisSize       DZP
PAO.EnergyShift      25 meV
PAO.SplitNorm       0.15
WriteMDXmol F
WriteMullikenPop 0
XC.functional       GGA
XC.authors          PBE
MeshCutoff         150.0 Ry
SpinPolarized        T
MaxSCFIterations    80
DM.MixingWeight      0.1
DM.NumberPulay       3
DM.UseSaveDM   T
MD.USeSaveXV   T
MD.UseSaveCG   T
LongOutput    F
MD.TypeOfRun    CG
MD.NumCGsteps   500
%block CutOffRadius
QM  0.2
QMMM 100.0
MM 80.0
BLO 80.0
%endblock CutOffRadius
%block SolventInput
%endblock SolventInput
************************** End of input data file *****************************

reinit: -----------------------------------------------------------------------
reinit: System Name: cut5                                                       
reinit: -----------------------------------------------------------------------
reinit: System Label: cut5                
reinit: -----------------------------------------------------------------------
 Hi Angi!

hybrid: Running with no MM atoms

read:***********************************************************************
read: Atomic-coordinates input format  =     Cartesian coordinates (in Ang)
read: Total number of electrons        =    18
 opt_scheme vale           0
read: Dynamics option                  =     CG coord. optimization
read: Use continuation files for CG    =     T
read: Use continuation files for XV    =     T
read: Maximum number of CG moves       =   500
read: Max atomic displ per move        =     0.2000  Bohr
read: Force tolerance                  =     0.0016  Ry/Bohr
read: Write coordinates each           =     1  steps
read: MM x QM steps                    =     1
read: Write forces QM-MM               =     1
read: ***********************************************************************
 cut5.XV                          

ioxv: WARNING: XV file not found
 Can't find lionml namelist. Using lionml defaults
 iostat =           -1
 Runing hybrid open shell, with            0 unpaired electrons
<====== Initializing G2G ======>
GPU Device used: GeForce GTX 580
Kernels: gpu
Kernels: cpu
Using 3 CPU Threads and 1 GPU Threads
 JOB STARTED NOW
mié abr  4 17:45:33 -03 2018
basis set corresponding to Z   6 was not used
basis set corresponding to Z   7 was not used
basis set corresponding to Z  17 was not used
basis set corresponding to Z  26 was not used
basis set corresponding to Z  16 was not used
<======= GPU Code Initialization ========>
atoms: 4
max atoms: 4
number of gaussians: 34
do_forces: false
s: 10 p: 4 d: 2
m: 34 nco: 9
LIOAMBER OPEN SHELL DFT :) 
Number of MO(UP): 9
Number of MO(DOWN): 9
density basis: s: 22 p: 6 d: 6
density basis: m: 76
Using device 0 for analytic integral calculations

center: System centered in cell

constr opt: Starting a Constrained               optimization run

*******************************
  Constrained Step :     1
*******************************

hybrid:                 ==============================
                            Begin CG move =      0
                        ==============================
 Optimization level:            3
 atoms QM, MM, totals           4           0           4
 doing SCF? T
 doing forces? T
Weights: 5403us.
Particion 0: 3071210
Particion 1: 2903450
Particion 2: 3010600
Relacion max / min = 1.057780
--> Thread OMP: 4
--> Thread CPU: 3
--> Thread GPU: 1
--> Correccion de cubos chicos: 250000
--> Puntos de separacion: 200
Timer functions: 3462us.
MM point charges: 0
 CONVERGED AT          89 ITERATIONS

    ╔════════════════════════════════════════════╗
    ║        ENERGY CONTRIBUTIONS IN A.U.        ║
    ╠══════════════════╦═════════════════════════╣
    ║   ONE ELECTRON   ║      -280.1069405       ║
    ╠══════════════════╬═════════════════════════╣
    ║   COULOMB        ║       110.1165619       ║
    ╠══════════════════╬═════════════════════════╣
    ║   NUCLEAR        ║        36.2151634       ║
    ╠══════════════════╬═════════════════════════╣
    ║   EXC. - CORR.   ║       -17.6432331       ║
    ╠══════════════════╬═════════════════════════╣
    ║   TOTAL          ║      -151.4184482       ║
    ╚══════════════════╩═════════════════════════╝

 Lio  E(H)  -151.41844824778869     
 Lio  E(eV)  -4120.3073769633193     

constr opt: variable constraint
icosntr  :   1
type     :   2
atoms    :   1   2
constant : 200.000
steps    :  99
initial  :   1.200
final    :   5.000
targeted :   1.200
actual   :   1.480


hybrid: Energy Decomposition (eV):
Elio :      -4120.307377

hybrid: Total Free Atoms:      4

hybrid: Atomic forces (eV/Ang):
     1   -6.470281    1.033639    6.149799
     2    4.159798   -5.109571   -6.191086
     3    4.240104    0.252652    0.989106
     4   -1.924092    3.831450   -0.948726
-------------------------------------------
 Tot    0.005528    0.008172   -0.000907
-------------------------------------------
 Max    6.470281  free, atom      1
 Res    4.090609  sqrt( Sum f_i^2 / 3N )
-------------------------------------------
 Max    6.470281  cons, atom      1

cgvc: WARNING: CG file not found
 cut5.XV                          

hybrid:                 ==============================
                            Begin CG move =      1
                        ==============================
 Optimization level:            3
 atoms QM, MM, totals           4           0           4
 doing SCF? T
 doing forces? T
Weights: 1671us.
Particion 0: 3108710
Particion 1: 2902260
Particion 2: 3010400
Relacion max / min = 1.071134
--> Thread OMP: 4
--> Thread CPU: 3
--> Thread GPU: 1
--> Correccion de cubos chicos: 250000
--> Puntos de separacion: 200
Timer functions: 795us.
MM point charges: 0
 CONVERGED AT          52 ITERATIONS
 Lio  E(H)  -151.41833971600340     
 Lio  E(eV)  -4120.3044236619171     


hybrid: Energy Decomposition (eV):
Elio :      -4120.304424

hybrid: Atomic forces (eV/Ang):
     1    2.127518    0.391390   -2.760572
     2   -0.742780    2.082905    2.770658
     3   -3.331046    0.306460    2.377580
     4    1.948766   -2.768104   -2.390409
-------------------------------------------
 Tot    0.002458    0.012651   -0.002742
-------------------------------------------
 Max    3.331046  free, atom      3
 Res    2.215172  sqrt( Sum f_i^2 / 3N )
-------------------------------------------
 Max    3.331046  cons, atom      3
 cut5.XV                          

hybrid:                 ==============================
                            Begin CG move =      2
                        ==============================
 Optimization level:            3
 atoms QM, MM, totals           4           0           4
 doing SCF? T
 doing forces? T
Weights: 1732us.
Particion 0: 3081760
Particion 1: 2902540
Particion 2: 3010400
Relacion max / min = 1.061746
--> Thread OMP: 4
--> Thread CPU: 3
--> Thread GPU: 1
--> Correccion de cubos chicos: 250000
--> Puntos de separacion: 200
Timer functions: 688us.
MM point charges: 0
 CONVERGED AT          42 ITERATIONS
 Lio  E(H)  -151.42206987978597     
 Lio  E(eV)  -4120.4059266262420     


hybrid: Energy Decomposition (eV):
Elio :      -4120.405927

hybrid: Atomic forces (eV/Ang):
     1    0.096670    0.578187   -0.056011
     2    0.470455    0.384875    0.047061
     3   -1.575022    0.269424    2.153069
     4    1.010309   -1.222350   -2.146266
-------------------------------------------
 Tot    0.002413    0.010136   -0.002147
-------------------------------------------
 Max    2.153069  free, atom      3
 Res    1.119105  sqrt( Sum f_i^2 / 3N )
-------------------------------------------
 Max    2.153069  cons, atom      3

cgvc: Finished line minimization    1.  Mean atomic displacement =    0.0703
 cut5.XV                          

hybrid:                 ==============================
                            Begin CG move =      3
                        ==============================
 Optimization level:            3
 atoms QM, MM, totals           4           0           4
 doing SCF? T
 doing forces? T
Weights: 3038us.
Particion 0: 2910260
Particion 1: 3152120
Particion 2: 3011110
Relacion max / min = 1.083106
--> Thread OMP: 4
--> Thread CPU: 3
--> Thread GPU: 1
--> Correccion de cubos chicos: 250000
--> Puntos de separacion: 200
Timer functions: 6550us.
MM point charges: 0
 CONVERGED AT          41 ITERATIONS
 Lio  E(H)  -151.42355400070676     
 Lio  E(eV)  -4120.4463116285251     


hybrid: Energy Decomposition (eV):
Elio :      -4120.446312

hybrid: Atomic forces (eV/Ang):
     1   -0.071352    0.256970   -1.825830
     2    0.175788    0.203020    1.853537
     3   -0.751391    0.212477    1.017411
     4    0.647756   -0.665460   -1.047043
-------------------------------------------
 Tot    0.000801    0.007007   -0.001925
-------------------------------------------
 Max    1.853537  free, atom      2
 Res    0.936130  sqrt( Sum f_i^2 / 3N )
-------------------------------------------
 Max    1.853537  cons, atom      2
 cut5.XV                          

hybrid:                 ==============================
                            Begin CG move =      4
                        ==============================
 Optimization level:            3
 atoms QM, MM, totals           4           0           4
 doing SCF? T
 doing forces? T
Weights: 1786us.
Particion 0: 2473810
Particion 1: 2335060
Particion 2: 2505960
Relacion max / min = 1.073189
--> Thread OMP: 4
--> Thread CPU: 3
--> Thread GPU: 1
--> Correccion de cubos chicos: 250000
--> Puntos de separacion: 200
Timer functions: 370us.
MM point charges: 0
 CONVERGED AT          44 ITERATIONS
 Lio  E(H)  -151.41900898483075     
 Lio  E(eV)  -4120.3226354010967     


hybrid: Energy Decomposition (eV):
Elio :      -4120.322635

hybrid: Atomic forces (eV/Ang):
     1   -0.551282   -0.326450   -5.403271
     2   -0.068249   -0.489197    5.467609
     3    0.795621    0.173900   -1.083371
     4   -0.173724    0.647951    1.016828
-------------------------------------------
 Tot    0.002367    0.006203   -0.002205
-------------------------------------------
 Max    5.467609  free, atom      2
 Res    2.292478  sqrt( Sum f_i^2 / 3N )
-------------------------------------------
 Max    5.467609  cons, atom      2
 cut5.XV                          

hybrid:                 ==============================
                            Begin CG move =      5
                        ==============================
 Optimization level:            3
 atoms QM, MM, totals           4           0           4
 doing SCF? T
 doing forces? T
Weights: 4775us.
Particion 0: 2915870
Particion 1: 3150360
Particion 2: 3011090
Relacion max / min = 1.080419
--> Thread OMP: 4
--> Thread CPU: 3
--> Thread GPU: 1
--> Correccion de cubos chicos: 250000
--> Puntos de separacion: 200
Timer functions: 710us.
MM point charges: 0
 CONVERGED AT          42 ITERATIONS
 Lio  E(H)  -151.42327693200755     
 Lio  E(eV)  -4120.4387722023957     


hybrid: Energy Decomposition (eV):
Elio :      -4120.438772

hybrid: Atomic forces (eV/Ang):
     1   -0.167212    0.123668   -2.581745
     2    0.093489    0.046075    2.597089
     3   -0.409972    0.201784    0.550780
     4    0.484507   -0.364444   -0.567227
-------------------------------------------
 Tot    0.000813    0.007084   -0.001103
-------------------------------------------
 Max    2.597089  free, atom      2
 Res    1.105511  sqrt( Sum f_i^2 / 3N )
-------------------------------------------
 Max    2.597089  cons, atom      2

cgvc: Finished line minimization    2.  Mean atomic displacement =    0.0971
 cut5.XV                          

hybrid:                 ==============================
                            Begin CG move =      6
                        ==============================
 Optimization level:            3
 atoms QM, MM, totals           4           0           4
 doing SCF? T
 doing forces? T
Weights: 2278us.
Particion 0: 2512290
Particion 1: 2587460
Particion 2: 2755720
Relacion max / min = 1.096896
--> Thread OMP: 4
--> Thread CPU: 3
--> Thread GPU: 1
--> Correccion de cubos chicos: 250000
--> Puntos de separacion: 200
Timer functions: 1175us.
MM point charges: 0
 CONVERGED AT          47 ITERATIONS
 Lio  E(H)  -151.42612184210307     
 Lio  E(eV)  -4120.5161861779643     


hybrid: Energy Decomposition (eV):
Elio :      -4120.516186

hybrid: Atomic forces (eV/Ang):
     1   -1.901367   -0.414345    5.650152
     2    0.890474   -2.406459   -5.740509
     3    2.668371   -0.010736   -0.987584
     4   -1.655039    2.835252    1.080131
-------------------------------------------
 Tot    0.002439    0.003712    0.002190
-------------------------------------------
 Max    5.740509  free, atom      2
 Res    2.817929  sqrt( Sum f_i^2 / 3N )
-------------------------------------------
 Max    5.740509  cons, atom      2
 cut5.XV                          

hybrid:                 ==============================
                            Begin CG move =      7
                        ==============================
 Optimization level:            3
 atoms QM, MM, totals           4           0           4
 doing SCF? T
 doing forces? T
Weights: 1758us.
Particion 0: 2731590
Particion 1: 2585600
Particion 2: 2505510
Relacion max / min = 1.090233
--> Thread OMP: 4
--> Thread CPU: 3
--> Thread GPU: 1
--> Correccion de cubos chicos: 250000
--> Puntos de separacion: 200
Timer functions: 374us.
MM point charges: 0
 CONVERGED AT          45 ITERATIONS
 Lio  E(H)  -151.42595419802495     
 Lio  E(eV)  -4120.5116243485454     


hybrid: Energy Decomposition (eV):
Elio :      -4120.511624

hybrid: Atomic forces (eV/Ang):
     1   -0.613455   -0.052400    0.273819
     2    0.325868   -0.625739   -0.282536
     3    0.464716    0.132782    0.037495
     4   -0.175913    0.550875   -0.029698
-------------------------------------------
 Tot    0.001217    0.005517   -0.000919
-------------------------------------------
 Max    0.625739  free, atom      2
 Res    0.365366  sqrt( Sum f_i^2 / 3N )
-------------------------------------------
 Max    0.625739  cons, atom      2

cgvc: Finished line minimization    3.  Mean atomic displacement =    0.0298
 cut5.XV                          

hybrid:                 ==============================
                            Begin CG move =      8
                        ==============================
 Optimization level:            3
 atoms QM, MM, totals           4           0           4
 doing SCF? T
 doing forces? T
Weights: 6569us.
Particion 0: 2992870
Particion 1: 3151410
Particion 2: 3010960
Relacion max / min = 1.052973
--> Thread OMP: 4
--> Thread CPU: 3
--> Thread GPU: 1
--> Correccion de cubos chicos: 250000
--> Puntos de separacion: 200
Timer functions: 739us.
MM point charges: 0
 CONVERGED AT          40 ITERATIONS
 Lio  E(H)  -151.42632523418388     
 Lio  E(eV)  -4120.5217207604455     


hybrid: Energy Decomposition (eV):
Elio :      -4120.521721

hybrid: Atomic forces (eV/Ang):
     1    1.427492   -0.377285    0.798367
     2   -1.078243    1.168882   -0.763580
     3   -1.024309    0.129652   -0.055042
     4    0.678058   -0.914434    0.020251
-------------------------------------------
 Tot    0.002997    0.006815   -0.000003
-------------------------------------------
 Max    1.427492  free, atom      1
 Res    0.831406  sqrt( Sum f_i^2 / 3N )
-------------------------------------------
 Max    1.427492  cons, atom      1
 cut5.XV                          

hybrid:                 ==============================
                            Begin CG move =      9
                        ==============================
 Optimization level:            3
 atoms QM, MM, totals           4           0           4
 doing SCF? T
 doing forces? T
Weights: 11897us.
Particion 0: 2726860
Particion 1: 2586160
Particion 2: 2505510
Relacion max / min = 1.088345
--> Thread OMP: 4
--> Thread CPU: 3
--> Thread GPU: 1
--> Correccion de cubos chicos: 250000
--> Puntos de separacion: 200
Timer functions: 948us.
MM point charges: 0
 CONVERGED AT          38 ITERATIONS
 Lio  E(H)  -151.42624553290818     
 Lio  E(eV)  -4120.5195519774597     


hybrid: Energy Decomposition (eV):
Elio :      -4120.519552

hybrid: Atomic forces (eV/Ang):
     1   -0.013106   -0.146535    0.402079
     2   -0.090146   -0.097959   -0.394200
     3    0.023382    0.133265    0.019135
     4    0.081509    0.116709   -0.028207
-------------------------------------------
 Tot    0.001639    0.005480   -0.001194
-------------------------------------------
 Max    0.402079  free, atom      1
 Res    0.181696  sqrt( Sum f_i^2 / 3N )
-------------------------------------------
 Max    0.402079  cons, atom      1

cgvc: Finished line minimization    4.  Mean atomic displacement =    0.0084
 cut5.XV                          

hybrid:                 ==============================
                            Begin CG move =     10
                        ==============================
 Optimization level:            3
 atoms QM, MM, totals           4           0           4
 doing SCF? T
 doing forces? T
Weights: 1801us.
Particion 0: 2736870
Particion 1: 2585600
Particion 2: 2505510
Relacion max / min = 1.092340
--> Thread OMP: 4
--> Thread CPU: 3
--> Thread GPU: 1
--> Correccion de cubos chicos: 250000
--> Puntos de separacion: 200
Timer functions: 374us.
MM point charges: 0
 CONVERGED AT          31 ITERATIONS
 Lio  E(H)  -151.42549269547422     
 Lio  E(eV)  -4120.4990662198215     


hybrid: Energy Decomposition (eV):
Elio :      -4120.499066

hybrid: Atomic forces (eV/Ang):
     1    0.137226   -0.134752   -0.600519
     2   -0.195094    0.117213    0.626681
     3   -0.172284    0.145211    0.047499
     4    0.231471   -0.121739   -0.074450
-------------------------------------------
 Tot    0.001319    0.005933   -0.000788
-------------------------------------------
 Max    0.626681  free, atom      2
 Res    0.284181  sqrt( Sum f_i^2 / 3N )
-------------------------------------------
 Max    0.626681  cons, atom      2
 cut5.XV                          

hybrid:                 ==============================
                            Begin CG move =     11
                        ==============================
 Optimization level:            3
 atoms QM, MM, totals           4           0           4
 doing SCF? T
 doing forces? T
Weights: 2671us.
Particion 0: 2726310
Particion 1: 2585600
Particion 2: 2505510
Relacion max / min = 1.088126
--> Thread OMP: 4
--> Thread CPU: 3
--> Thread GPU: 1
--> Correccion de cubos chicos: 250000
--> Puntos de separacion: 200
Timer functions: 567us.
MM point charges: 0
 CONVERGED AT          27 ITERATIONS

    ╔════════════════════════════════════════════╗
    ║        ENERGY CONTRIBUTIONS IN A.U.        ║
    ╠══════════════════╦═════════════════════════╣
    ║   ONE ELECTRON   ║      -282.3805276       ║
    ╠══════════════════╬═════════════════════════╣
    ║   COULOMB        ║       111.2572968       ║
    ╠══════════════════╬═════════════════════════╣
    ║   NUCLEAR        ║        37.3511956       ║
    ╠══════════════════╬═════════════════════════╣
    ║   EXC. - CORR.   ║       -17.6538776       ║
    ╠══════════════════╬═════════════════════════╣
    ║   TOTAL          ║      -151.4259127       ║
    ╚══════════════════╩═════════════════════════╝

 Lio  E(H)  -151.42591267627287     
 Lio  E(eV)  -4120.5104944837012     


hybrid: Energy Decomposition (eV):
Elio :      -4120.510494

hybrid: Atomic forces (eV/Ang):
     1    0.055251   -0.140457   -0.069227
     2   -0.135858   -0.003079    0.085137
     3   -0.069631    0.139778    0.034096
     4    0.151882    0.008960   -0.050285
-------------------------------------------
 Tot    0.001643    0.005202   -0.000279
-------------------------------------------
 Max    0.151882  free, atom      4
 Res    0.093325  sqrt( Sum f_i^2 / 3N )
-------------------------------------------
 Max    0.151882  cons, atom      4

cgvc: Finished line minimization    5.  Mean atomic displacement =    0.0039
 cut5.XV                          

hybrid:                 ==============================
                            Begin CG move =     12
                        ==============================
 Optimization level:            3
 atoms QM, MM, totals           4           0           4
 doing SCF? T
 doing forces? T
Weights: 1793us.
Particion 0: 2497280
Particion 1: 2333480
Particion 2: 2505900
Relacion max / min = 1.073890
--> Thread OMP: 4
--> Thread CPU: 3
--> Thread GPU: 1
--> Correccion de cubos chicos: 250000
--> Puntos de separacion: 200
Timer functions: 345us.
MM point charges: 0
 CONVERGED AT          24 ITERATIONS
 Lio  E(H)  -151.42587987153712     
 Lio  E(eV)  -4120.5096018210415     


hybrid: Energy Decomposition (eV):
Elio :      -4120.509602

hybrid: Atomic forces (eV/Ang):
     1   -0.078892   -0.121427   -0.082355
     2   -0.091476   -0.102480    0.095963
     3    0.050222    0.133256    0.015647
     4    0.121266    0.096381   -0.031129
-------------------------------------------
 Tot    0.001120    0.005729   -0.001875
-------------------------------------------
 Max    0.133256  free, atom      3
 Res    0.091886  sqrt( Sum f_i^2 / 3N )
-------------------------------------------
 Max    0.133256  cons, atom      3
 cut5.XV                          

hybrid:                 ==============================
                            Begin CG move =     13
                        ==============================
 Optimization level:            3
 atoms QM, MM, totals           4           0           4
 doing SCF? T
 doing forces? T
Weights: 1778us.
Particion 0: 2985330
Particion 1: 2931620
Particion 2: 2762940
Relacion max / min = 1.080490
--> Thread OMP: 4
--> Thread CPU: 3
--> Thread GPU: 1
--> Correccion de cubos chicos: 250000
--> Puntos de separacion: 200
Timer functions: 770us.
MM point charges: 0
 CONVERGED AT          27 ITERATIONS
 Lio  E(H)  -151.42579102222194     
 Lio  E(eV)  -4120.5071841071303     


hybrid: Energy Decomposition (eV):
Elio :      -4120.507184

hybrid: Atomic forces (eV/Ang):
     1   -0.302603   -0.084414   -0.111629
     2    0.058800   -0.294715    0.115725
     3    0.238794    0.131208   -0.009558
     4    0.005828    0.253952    0.005045
-------------------------------------------
 Tot    0.000819    0.006031   -0.000417
-------------------------------------------
 Max    0.302603  free, atom      1
 Res    0.171693  sqrt( Sum f_i^2 / 3N )
-------------------------------------------
 Max    0.302603  cons, atom      1
 cut5.XV                          

hybrid:                 ==============================
                            Begin CG move =     14
                        ==============================
 Optimization level:            3
 atoms QM, MM, totals           4           0           4
 doing SCF? T
 doing forces? T
Weights: 1705us.
Particion 0: 2985320
Particion 1: 2929150
Particion 2: 2762940
Relacion max / min = 1.080487
--> Thread OMP: 4
--> Thread CPU: 3
--> Thread GPU: 1
--> Correccion de cubos chicos: 250000
--> Puntos de separacion: 200
Timer functions: 3074us.
MM point charges: 0
 CONVERGED AT          29 ITERATIONS
 Lio  E(H)  -151.42566358390056     
 Lio  E(eV)  -4120.5037163324851     


hybrid: Energy Decomposition (eV):
Elio :      -4120.503716

hybrid: Atomic forces (eV/Ang):
     1   -0.642964   -0.069848   -0.157776
     2    0.284960   -0.616550    0.159443
     3    0.537966    0.129773   -0.051931
     4   -0.179018    0.562594    0.048459
-------------------------------------------
 Tot    0.000944    0.005970   -0.001804
-------------------------------------------
 Max    0.642964  free, atom      1
 Res    0.363981  sqrt( Sum f_i^2 / 3N )
-------------------------------------------
 Max    0.642964  cons, atom      1
 cut5.XV                          

hybrid:                 ==============================
                            Begin CG move =     15
                        ==============================
 Optimization level:            3
 atoms QM, MM, totals           4           0           4
 doing SCF? T
 doing forces? T
Weights: 1699us.
Particion 0: 2985330
Particion 1: 2931630
Particion 2: 2762940
Relacion max / min = 1.080490
--> Thread OMP: 4
--> Thread CPU: 3
--> Thread GPU: 1
--> Correccion de cubos chicos: 250000
--> Puntos de separacion: 200
Timer functions: 712us.
MM point charges: 0
 CONVERGED AT          28 ITERATIONS
 Lio  E(H)  -151.42576841421374     
 Lio  E(eV)  -4120.5065689116636     


hybrid: Energy Decomposition (eV):
Elio :      -4120.506569

hybrid: Atomic forces (eV/Ang):
     1   -0.369984   -0.076379   -0.121868
     2    0.099722   -0.348975    0.123452
     3    0.295270    0.129319   -0.016913
     4   -0.024123    0.301733    0.013536
-------------------------------------------
 Tot    0.000886    0.005698   -0.001792
-------------------------------------------
 Max    0.369984  free, atom      1
 Res    0.204235  sqrt( Sum f_i^2 / 3N )
-------------------------------------------
 Max    0.369984  cons, atom      1

cgvc: Finished line minimization    6.  Mean atomic displacement =    0.0120
 cut5.XV                          

hybrid:                 ==============================
                            Begin CG move =     16
                        ==============================
 Optimization level:            3
 atoms QM, MM, totals           4           0           4
 doing SCF? T
 doing forces? T
Weights: 1820us.
Particion 0: 2985320
Particion 1: 2928600
Particion 2: 2762940
Relacion max / min = 1.080487
--> Thread OMP: 4
--> Thread CPU: 3
--> Thread GPU: 1
--> Correccion de cubos chicos: 250000
--> Puntos de separacion: 200
Timer functions: 3488us.
MM point charges: 0
 CONVERGED AT          29 ITERATIONS
 Lio  E(H)  -151.42583210225033     
 Lio  E(eV)  -4120.5083019520562     


hybrid: Energy Decomposition (eV):
Elio :      -4120.508302

hybrid: Atomic forces (eV/Ang):
     1   -0.313256   -0.088650   -0.116695
     2    0.115229   -0.349776    0.106515
     3    0.242474    0.123193    0.000864
     4   -0.043584    0.320678    0.008827
-------------------------------------------
 Tot    0.000863    0.005444   -0.000488
-------------------------------------------
 Max    0.349776  free, atom      2
 Res    0.192647  sqrt( Sum f_i^2 / 3N )
-------------------------------------------
 Max    0.349776  cons, atom      2
 cut5.XV                          

hybrid:                 ==============================
                            Begin CG move =     17
                        ==============================
 Optimization level:            3
 atoms QM, MM, totals           4           0           4
 doing SCF? T
 doing forces? T
Weights: 1712us.
Particion 0: 2970040
Particion 1: 2928060
Particion 2: 2762690
Relacion max / min = 1.075054
--> Thread OMP: 4
--> Thread CPU: 3
--> Thread GPU: 1
--> Correccion de cubos chicos: 250000
--> Puntos de separacion: 200
Timer functions: 695us.
MM point charges: 0
 CONVERGED AT          33 ITERATIONS
 Lio  E(H)  -151.42587368081780     
 Lio  E(eV)  -4120.5094333629258     


hybrid: Energy Decomposition (eV):
Elio :      -4120.509433

hybrid: Atomic forces (eV/Ang):
     1   -0.228812   -0.043573   -0.124762
     2    0.089686   -0.261012    0.082150
     3    0.145084    0.093014    0.035374
     4   -0.004878    0.217894    0.005922
-------------------------------------------
 Tot    0.001079    0.006323   -0.001316
-------------------------------------------
 Max    0.261012  free, atom      2
 Res    0.138813  sqrt( Sum f_i^2 / 3N )
-------------------------------------------
 Max    0.261012  cons, atom      2
 cut5.XV                          

hybrid:                 ==============================
                            Begin CG move =     18
                        ==============================
 Optimization level:            3
 atoms QM, MM, totals           4           0           4
 doing SCF? T
 doing forces? T
Weights: 1704us.
Particion 0: 2781590
Particion 1: 2929160
Particion 2: 3012850
Relacion max / min = 1.083139
--> Thread OMP: 4
--> Thread CPU: 3
--> Thread GPU: 1
--> Correccion de cubos chicos: 250000
--> Puntos de separacion: 200
Timer functions: 768us.
MM point charges: 0
 CONVERGED AT          37 ITERATIONS
 Lio  E(H)  -151.42596319550367     
 Lio  E(eV)  -4120.5118691825028     


hybrid: Energy Decomposition (eV):
Elio :      -4120.511869

hybrid: Atomic forces (eV/Ang):
     1    0.043187   -0.025093   -0.179055
     2    0.005981   -0.079914    0.112151
     3   -0.109488    0.049701    0.102826
     4    0.061933    0.062545   -0.036651
-------------------------------------------
 Tot    0.001613    0.007238   -0.000728
-------------------------------------------
 Max    0.179055  free, atom      1
 Res    0.085478  sqrt( Sum f_i^2 / 3N )
-------------------------------------------
 Max    0.179055  cons, atom      1
 cut5.XV                          

hybrid:                 ==============================
                            Begin CG move =     19
                        ==============================
 Optimization level:            3
 atoms QM, MM, totals           4           0           4
 doing SCF? T
 doing forces? T
Weights: 51004us.
Particion 0: 2807990
Particion 1: 2934850
Particion 2: 3012700
Relacion max / min = 1.072903
--> Thread OMP: 4
--> Thread CPU: 3
--> Thread GPU: 1
--> Correccion de cubos chicos: 250000
--> Puntos de separacion: 200
Timer functions: 3505us.
MM point charges: 0
 CONVERGED AT          41 ITERATIONS
 Lio  E(H)  -151.42578533595042     
 Lio  E(eV)  -4120.5070293757435     


hybrid: Energy Decomposition (eV):
Elio :      -4120.507029

hybrid: Atomic forces (eV/Ang):
     1    0.586885    0.128492   -0.258904
     2   -0.072958    0.380925    0.100249
     3   -0.668104   -0.094409    0.248999
     4    0.157011   -0.406248   -0.090296
-------------------------------------------
 Tot    0.002835    0.008760    0.000048
-------------------------------------------
 Max    0.668104  free, atom      3
 Res    0.329592  sqrt( Sum f_i^2 / 3N )
-------------------------------------------
 Max    0.668104  cons, atom      3
 cut5.XV                          

hybrid:                 ==============================
                            Begin CG move =     20
                        ==============================
 Optimization level:            3
 atoms QM, MM, totals           4           0           4
 doing SCF? T
 doing forces? T
Weights: 1715us.
Particion 0: 2807440
Particion 1: 2931370
Particion 2: 3012860
Relacion max / min = 1.073170
--> Thread OMP: 4
--> Thread CPU: 3
--> Thread GPU: 1
--> Correccion de cubos chicos: 250000
--> Puntos de separacion: 200
Timer functions: 784us.
MM point charges: 0
 CONVERGED AT          38 ITERATIONS
 Lio  E(H)  -151.42593572360022     
 Lio  E(eV)  -4120.5111216336554     


hybrid: Energy Decomposition (eV):
Elio :      -4120.511122

hybrid: Atomic forces (eV/Ang):
     1    0.174969    0.019415   -0.193678
     2    0.036694    0.039829    0.092605
     3   -0.267327    0.011732    0.152937
     4    0.057894   -0.063351   -0.052783
-------------------------------------------
 Tot    0.002230    0.007625   -0.000920
-------------------------------------------
 Max    0.267327  free, atom      3
 Res    0.124215  sqrt( Sum f_i^2 / 3N )
-------------------------------------------
 Max    0.267327  cons, atom      3

cgvc: Finished line minimization    7.  Mean atomic displacement =    0.0782
 cut5.XV                          

hybrid:                 ==============================
                            Begin CG move =     21
                        ==============================
 Optimization level:            3
 atoms QM, MM, totals           4           0           4
 doing SCF? T
 doing forces? T
Weights: 9800us.
Particion 0: 2855510
Particion 1: 2926990
Particion 2: 3016930
Relacion max / min = 1.056529
--> Thread OMP: 4
--> Thread CPU: 3
--> Thread GPU: 1
--> Correccion de cubos chicos: 250000
--> Puntos de separacion: 200
Timer functions: 4635us.
MM point charges: 0
 CONVERGED AT          45 ITERATIONS
 Lio  E(H)  -151.42661219535384     
 Lio  E(eV)  -4120.5295293745157     


hybrid: Energy Decomposition (eV):
Elio :      -4120.529529

hybrid: Atomic forces (eV/Ang):
     1   -1.521286   -0.121456    1.815870
     2    0.092496    0.195326   -1.438831
     3    1.468668    0.145077   -0.291706
     4   -0.038331   -0.210954   -0.084328
-------------------------------------------
 Tot    0.001548    0.007993    0.001004
-------------------------------------------
 Max    1.815870  free, atom      1
 Res    0.915587  sqrt( Sum f_i^2 / 3N )
-------------------------------------------
 Max    1.815870  cons, atom      1
 cut5.XV                          

hybrid:                 ==============================
                            Begin CG move =     22
                        ==============================
 Optimization level:            3
 atoms QM, MM, totals           4           0           4
 doing SCF? T
 doing forces? T
Weights: 9084us.
Particion 0: 2818000
Particion 1: 2931100
Particion 2: 3012860
Relacion max / min = 1.069148
--> Thread OMP: 4
--> Thread CPU: 3
--> Thread GPU: 1
--> Correccion de cubos chicos: 250000
--> Puntos de separacion: 200
Timer functions: 804us.
MM point charges: 0
 CONVERGED AT          44 ITERATIONS

    ╔════════════════════════════════════════════╗
    ║        ENERGY CONTRIBUTIONS IN A.U.        ║
    ╠══════════════════╦═════════════════════════╣
    ║   ONE ELECTRON   ║      -282.3622241       ║
    ╠══════════════════╬═════════════════════════╣
    ║   COULOMB        ║       111.2374855       ║
    ╠══════════════════╬═════════════════════════╣
    ║   NUCLEAR        ║        37.3514975       ║
    ╠══════════════════╬═════════════════════════╣
    ║   EXC. - CORR.   ║       -17.6527906       ║
    ╠══════════════════╬═════════════════════════╣
    ║   TOTAL          ║      -151.4260317       ║
    ╚══════════════════╩═════════════════════════╝

 Lio  E(H)  -151.42603168597071     
 Lio  E(eV)  -4120.5137329037334     


hybrid: Energy Decomposition (eV):
Elio :      -4120.513733

hybrid: Atomic forces (eV/Ang):
     1   -0.093439    0.010059    0.112423
     2    0.038229    0.025713   -0.166620
     3    0.000819    0.022078    0.088771
     4    0.056039   -0.050192   -0.035395
-------------------------------------------
 Tot    0.001648    0.007657   -0.000820
-------------------------------------------
 Max    0.166620  free, atom      2
 Res    0.074519  sqrt( Sum f_i^2 / 3N )
-------------------------------------------
 Max    0.166620  cons, atom      2

cgvc: Finished line minimization    8.  Mean atomic displacement =    0.0108
 cut5.XV                          

hybrid:                 ==============================
                            Begin CG move =     23
                        ==============================
 Optimization level:            3
 atoms QM, MM, totals           4           0           4
 doing SCF? T
 doing forces? T
Weights: 1708us.
Particion 0: 2818550
Particion 1: 2933380
Particion 2: 3012700
Relacion max / min = 1.068883
--> Thread OMP: 4
--> Thread CPU: 3
--> Thread GPU: 1
--> Correccion de cubos chicos: 250000
--> Puntos de separacion: 200
Timer functions: 733us.
MM point charges: 0
 CONVERGED AT          27 ITERATIONS
 Lio  E(H)  -151.42589856572960     
 Lio  E(eV)  -4120.5101105161184     


hybrid: Energy Decomposition (eV):
Elio :      -4120.510111

hybrid: Atomic forces (eV/Ang):
     1   -0.159080    0.023482   -0.005710
     2    0.055967   -0.024940    0.004901
     3    0.092289    0.018879    0.009593
     4    0.013025   -0.009617   -0.008797
-------------------------------------------
 Tot    0.002201    0.007803   -0.000013
-------------------------------------------
 Max    0.159080  free, atom      1
 Res    0.056990  sqrt( Sum f_i^2 / 3N )
-------------------------------------------
 Max    0.159080  cons, atom      1
 cut5.XV                          

hybrid:                 ==============================
                            Begin CG move =     24
                        ==============================
 Optimization level:            3
 atoms QM, MM, totals           4           0           4
 doing SCF? T
 doing forces? T
Weights: 13861us.
Particion 0: 2818000
Particion 1: 2932830
Particion 2: 3012860
Relacion max / min = 1.069148
--> Thread OMP: 4
--> Thread CPU: 3
--> Thread GPU: 1
--> Correccion de cubos chicos: 250000
--> Puntos de separacion: 200
Timer functions: 3457us.
MM point charges: 0
 CONVERGED AT          13 ITERATIONS
 Lio  E(H)  -151.42590539185233     
 Lio  E(eV)  -4120.5102962644487     


hybrid: Energy Decomposition (eV):
Elio :      -4120.510296

hybrid: Atomic forces (eV/Ang):
     1   -0.155966    0.018860    0.000017
     2    0.051306   -0.025942   -0.003058
     3    0.087325    0.019128    0.014754
     4    0.019358   -0.003955   -0.011755
-------------------------------------------
 Tot    0.002022    0.008091   -0.000043
-------------------------------------------
 Max    0.155966  free, atom      1
 Res    0.055327  sqrt( Sum f_i^2 / 3N )
-------------------------------------------
 Max    0.155966  cons, atom      1

cgvc: Finished line minimization    9.  Mean atomic displacement =    0.0102
 cut5.XV                          

hybrid:                 ==============================
                            Begin CG move =     25
                        ==============================
 Optimization level:            3
 atoms QM, MM, totals           4           0           4
 doing SCF? T
 doing forces? T
Weights: 13406us.
Particion 0: 2839670
Particion 1: 2933930
Particion 2: 3012700
Relacion max / min = 1.060933
--> Thread OMP: 4
--> Thread CPU: 3
--> Thread GPU: 1
--> Correccion de cubos chicos: 250000
--> Puntos de separacion: 200
Timer functions: 9396us.
MM point charges: 0
 CONVERGED AT          32 ITERATIONS
 Lio  E(H)  -151.42587359108117     
 Lio  E(eV)  -4120.5094309210672     


hybrid: Energy Decomposition (eV):
Elio :      -4120.509431

hybrid: Atomic forces (eV/Ang):
     1    0.758720    0.082922   -0.274159
     2   -0.103855    0.103669    0.203847
     3   -0.683282   -0.080132    0.049749
     4    0.030924   -0.098405    0.019912
-------------------------------------------
 Tot    0.002508    0.008054   -0.000650
-------------------------------------------
 Max    0.758720  free, atom      1
 Res    0.317226  sqrt( Sum f_i^2 / 3N )
-------------------------------------------
 Max    0.758720  cons, atom      1
 cut5.XV                          

hybrid:                 ==============================
                            Begin CG move =     26
                        ==============================
 Optimization level:            3
 atoms QM, MM, totals           4           0           4
 doing SCF? T
 doing forces? T
Weights: 1690us.
Particion 0: 2818550
Particion 1: 2932830
Particion 2: 3012700
Relacion max / min = 1.068883
--> Thread OMP: 4
--> Thread CPU: 3
--> Thread GPU: 1
--> Correccion de cubos chicos: 250000
--> Puntos de separacion: 200
Timer functions: 770us.
MM point charges: 0
 CONVERGED AT          30 ITERATIONS
 Lio  E(H)  -151.42589719767653     
 Lio  E(eV)  -4120.5100732894853     


hybrid: Energy Decomposition (eV):
Elio :      -4120.510073

hybrid: Atomic forces (eV/Ang):
     1   -0.001277    0.036681   -0.041784
     2    0.031073   -0.002947    0.020784
     3   -0.046895    0.002155    0.023083
     4    0.019311   -0.027487   -0.002557
-------------------------------------------
 Tot    0.002212    0.008402   -0.000474
-------------------------------------------
 Max    0.046895  free, atom      3
 Res    0.026411  sqrt( Sum f_i^2 / 3N )
-------------------------------------------
 Max    0.046895  cons, atom      3
 cut5.XV                          
  Econtribution          1.406682        -4120.510073            0.000000            0.000000            0.000000        -4120.510073

constr opt: Optimized Reaction Coordinate
Reaction Coordinate (Ang) :    1.40668
Total Energy (eV) :  -4120.51007
 atoms QM, MM, totals           4           0           4
 doing SCF? T
 doing forces? T
Weights: 85155us.
Particion 0: 2818550
Particion 1: 2932830
Particion 2: 3012700
Relacion max / min = 1.068883
--> Thread OMP: 4
--> Thread CPU: 3
--> Thread GPU: 1
--> Correccion de cubos chicos: 250000
--> Puntos de separacion: 200
Timer functions: 6473us.
MM point charges: 0
 CONVERGED AT           2 ITERATIONS
 Lio  E(H)  -151.42589642409945     
 Lio  E(eV)  -4120.5100522393723     

*******************************
  Constrained Step :     2
*******************************

hybrid:                 ==============================
                            Begin CG move =      0
                        ==============================
 Optimization level:            3
 atoms QM, MM, totals           4           0           4
 doing SCF? T
 doing forces? T
Weights: 11315us.
Particion 0: 2818550
Particion 1: 2932830
Particion 2: 3012700
Relacion max / min = 1.068883
--> Thread OMP: 4
--> Thread CPU: 3
--> Thread GPU: 1
--> Correccion de cubos chicos: 250000
--> Puntos de separacion: 200
Timer functions: 1277us.
MM point charges: 0
 CONVERGED AT           2 ITERATIONS
 Lio  E(H)  -151.42589668584046     
 Lio  E(eV)  -4120.5100593617108     

constr opt: variable constraint
icosntr  :   1
targeted :   1.238
actual   :   1.407


hybrid: Energy Decomposition (eV):
Elio :      -4120.510059

hybrid: Atomic forces (eV/Ang):
     1   -0.043320    0.053864   -0.705435
     2    0.071159   -0.021915    0.684666
     3   -0.044619    0.002571    0.022720
     4    0.018984   -0.026071   -0.002480
-------------------------------------------
 Tot    0.002205    0.008449   -0.000529
-------------------------------------------
 Max    0.705435  free, atom      1
 Res    0.285816  sqrt( Sum f_i^2 / 3N )
-------------------------------------------
 Max    0.705435  cons, atom      1

cgvc: Finished line minimization   10.  Mean atomic displacement =    0.1000
 cut5.XV                          

hybrid:                 ==============================
                            Begin CG move =      1
                        ==============================
 Optimization level:            3
 atoms QM, MM, totals           4           0           4
 doing SCF? T
 doing forces? T
Weights: 1824us.
Particion 0: 2384210
Particion 1: 2601520
Particion 2: 2508420
Relacion max / min = 1.091145
--> Thread OMP: 4
--> Thread CPU: 3
--> Thread GPU: 1
--> Correccion de cubos chicos: 250000
--> Puntos de separacion: 200
Timer functions: 388us.
MM point charges: 0
 CONVERGED AT          48 ITERATIONS
 Lio  E(H)  -151.42473892136024     
 Lio  E(eV)  -4120.4785549738117     


hybrid: Energy Decomposition (eV):
Elio :      -4120.478555

hybrid: Atomic forces (eV/Ang):
     1   -1.239979   -0.310888    9.288174
     2    0.130910   -0.975950   -9.175364
     3    1.761915    0.078953   -0.340492
     4   -0.648841    1.214428    0.230716
-------------------------------------------
 Tot    0.004005    0.006544    0.003034
-------------------------------------------
 Max    9.288174  free, atom      1
 Res    3.853968  sqrt( Sum f_i^2 / 3N )
-------------------------------------------
 Max    9.288174  cons, atom      1
 cut5.XV                          

hybrid:                 ==============================
                            Begin CG move =      2
                        ==============================
 Optimization level:            3
 atoms QM, MM, totals           4           0           4
 doing SCF? T
 doing forces? T
Weights: 1687us.
Particion 0: 2823280
Particion 1: 2931730
Particion 2: 3012700
Relacion max / min = 1.067092
--> Thread OMP: 4
--> Thread CPU: 3
--> Thread GPU: 1
--> Correccion de cubos chicos: 250000
--> Puntos de separacion: 200
Timer functions: 4534us.
MM point charges: 0
 CONVERGED AT          48 ITERATIONS
 Lio  E(H)  -151.42654435604788     
 Lio  E(eV)  -4120.5276833722883     


hybrid: Energy Decomposition (eV):
Elio :      -4120.527683

hybrid: Atomic forces (eV/Ang):
     1   -0.120742    0.039454    0.215427
     2    0.079080   -0.092805   -0.228016
     3    0.076395   -0.002495   -0.004444
     4   -0.032598    0.063337    0.016741
-------------------------------------------
 Tot    0.002134    0.007491   -0.000293
-------------------------------------------
 Max    0.228016  free, atom      2
 Res    0.108251  sqrt( Sum f_i^2 / 3N )
-------------------------------------------
 Max    0.228016  cons, atom      2

cgvc: Finished line minimization    1.  Mean atomic displacement =    0.0071
 cut5.XV                          

hybrid:                 ==============================
                            Begin CG move =      3
                        ==============================
 Optimization level:            3
 atoms QM, MM, totals           4           0           4
 doing SCF? T
 doing forces? T
Weights: 1697us.
Particion 0: 2823280
Particion 1: 2931730
Particion 2: 3012700
Relacion max / min = 1.067092
--> Thread OMP: 4
--> Thread CPU: 3
--> Thread GPU: 1
--> Correccion de cubos chicos: 250000
--> Puntos de separacion: 200
Timer functions: 778us.
MM point charges: 0
 CONVERGED AT          30 ITERATIONS
 Lio  E(H)  -151.42680910459140     
 Lio  E(eV)  -4120.5348875497812     


hybrid: Energy Decomposition (eV):
Elio :      -4120.534888

hybrid: Atomic forces (eV/Ang):
     1    0.380882    0.033673    0.554647
     2   -0.203237    0.365874   -0.549083
     3   -0.325714   -0.048224    0.020359
     4    0.150519   -0.343302   -0.026097
-------------------------------------------
 Tot    0.002450    0.008020   -0.000174
-------------------------------------------
 Max    0.554647  free, atom      1
 Res    0.313651  sqrt( Sum f_i^2 / 3N )
-------------------------------------------
 Max    0.554647  cons, atom      1
 cut5.XV                          

hybrid:                 ==============================
                            Begin CG move =      4
                        ==============================
 Optimization level:            3
 atoms QM, MM, totals           4           0           4
 doing SCF? T
 doing forces? T
Weights: 1750us.
Particion 0: 2823280
Particion 1: 2931730
Particion 2: 3012700
Relacion max / min = 1.067092
--> Thread OMP: 4
--> Thread CPU: 3
--> Thread GPU: 1
--> Correccion de cubos chicos: 250000
--> Puntos de separacion: 200
Timer functions: 734us.
MM point charges: 0
 CONVERGED AT          29 ITERATIONS
 Lio  E(H)  -151.42655433319220     
 Lio  E(eV)  -4120.5279548643139     


hybrid: Energy Decomposition (eV):
Elio :      -4120.527955

hybrid: Atomic forces (eV/Ang):
     1   -0.102908    0.039556    0.222459
     2    0.068683   -0.076276   -0.234868
     3    0.062017   -0.004016   -0.003113
     4   -0.026011    0.048903    0.014913
-------------------------------------------
 Tot    0.001781    0.008167   -0.000609
-------------------------------------------
 Max    0.234868  free, atom      2
 Res    0.105871  sqrt( Sum f_i^2 / 3N )
-------------------------------------------
 Max    0.234868  cons, atom      2

cgvc: Finished line minimization    2.  Mean atomic displacement =    0.0002
 cut5.XV                          

hybrid:                 ==============================
                            Begin CG move =      5
                        ==============================
 Optimization level:            3
 atoms QM, MM, totals           4           0           4
 doing SCF? T
 doing forces? T
Weights: 1783us.
Particion 0: 2823280
Particion 1: 2931180
Particion 2: 3012700
Relacion max / min = 1.067092
--> Thread OMP: 4
--> Thread CPU: 3
--> Thread GPU: 1
--> Correccion de cubos chicos: 250000
--> Puntos de separacion: 200
Timer functions: 731us.
MM point charges: 0
 CONVERGED AT           8 ITERATIONS

    ╔════════════════════════════════════════════╗
    ║        ENERGY CONTRIBUTIONS IN A.U.        ║
    ╠══════════════════╦═════════════════════════╣
    ║   ONE ELECTRON   ║      -282.1008092       ║
    ╠══════════════════╬═════════════════════════╣
    ║   COULOMB        ║       111.1049218       ║
    ╠══════════════════╬═════════════════════════╣
    ║   NUCLEAR        ║        37.2190813       ║
    ╠══════════════════╬═════════════════════════╣
    ║   EXC. - CORR.   ║       -17.6497354       ║
    ╠══════════════════╬═════════════════════════╣
    ║   TOTAL          ║      -151.4265415       ║
    ╚══════════════════╩═════════════════════════╝

 Lio  E(H)  -151.42654148136776     
 Lio  E(eV)  -4120.5276051482288     


hybrid: Energy Decomposition (eV):
Elio :      -4120.527605

hybrid: Atomic forces (eV/Ang):
     1   -0.097310    0.040262    0.201933
     2    0.067219   -0.071334   -0.212978
     3    0.055476   -0.004590   -0.002304
     4   -0.023229    0.043284    0.014092
-------------------------------------------
 Tot    0.002156    0.007623    0.000743
-------------------------------------------
 Max    0.212978  free, atom      2
 Res    0.096846  sqrt( Sum f_i^2 / 3N )
-------------------------------------------
 Max    0.212978  cons, atom      2
 cut5.XV                          

hybrid:                 ==============================
                            Begin CG move =      6
                        ==============================
 Optimization level:            3
 atoms QM, MM, totals           4           0           4
 doing SCF? T
 doing forces? T
Weights: 1666us.
Particion 0: 2818000
Particion 1: 2932560
Particion 2: 3012700
Relacion max / min = 1.069092
--> Thread OMP: 4
--> Thread CPU: 3
--> Thread GPU: 1
--> Correccion de cubos chicos: 250000
--> Puntos de separacion: 200
Timer functions: 776us.
MM point charges: 0
 CONVERGED AT          13 ITERATIONS
 Lio  E(H)  -151.42651897072514     
 Lio  E(eV)  -4120.5269926022147     


hybrid: Energy Decomposition (eV):
Elio :      -4120.526993

hybrid: Atomic forces (eV/Ang):
     1   -0.082018    0.041730    0.164754
     2    0.063393   -0.054817   -0.179016
     3    0.045845    0.001836   -0.001667
     4   -0.025202    0.019073    0.016325
-------------------------------------------
 Tot    0.002018    0.007821    0.000396
-------------------------------------------
 Max    0.179016  free, atom      2
 Res    0.080651  sqrt( Sum f_i^2 / 3N )
-------------------------------------------
 Max    0.179016  cons, atom      2
 cut5.XV                          

hybrid:                 ==============================
                            Begin CG move =      7
                        ==============================
 Optimization level:            3
 atoms QM, MM, totals           4           0           4
 doing SCF? T
 doing forces? T
Weights: 4162us.
Particion 0: 2818000
Particion 1: 2932830
Particion 2: 3012700
Relacion max / min = 1.069092
--> Thread OMP: 4
--> Thread CPU: 3
--> Thread GPU: 1
--> Correccion de cubos chicos: 250000
--> Puntos de separacion: 200
Timer functions: 801us.
MM point charges: 0
 CONVERGED AT          14 ITERATIONS
 Lio  E(H)  -151.42648512919777     
 Lio  E(eV)  -4120.5260717270075     


hybrid: Energy Decomposition (eV):
Elio :      -4120.526072

hybrid: Atomic forces (eV/Ang):
     1   -0.057317    0.042829    0.110049
     2    0.052866   -0.032732   -0.124433
     3    0.021706   -0.000067    0.000978
     4   -0.014704   -0.002321    0.013539
-------------------------------------------
 Tot    0.002551    0.007708    0.000133
-------------------------------------------
 Max    0.124433  free, atom      2
 Res    0.055870  sqrt( Sum f_i^2 / 3N )
-------------------------------------------
 Max    0.124433  cons, atom      2
 cut5.XV                          

hybrid:                 ==============================
                            Begin CG move =      8
                        ==============================
 Optimization level:            3
 atoms QM, MM, totals           4           0           4
 doing SCF? T
 doing forces? T
Weights: 1723us.
Particion 0: 2818000
Particion 1: 2932010
Particion 2: 3012700
Relacion max / min = 1.069092
--> Thread OMP: 4
--> Thread CPU: 3
--> Thread GPU: 1
--> Correccion de cubos chicos: 250000
--> Puntos de separacion: 200
Timer functions: 791us.
MM point charges: 0
 CONVERGED AT          16 ITERATIONS
 Lio  E(H)  -151.42642871012518     
 Lio  E(eV)  -4120.5245364852744     


hybrid: Energy Decomposition (eV):
Elio :      -4120.524536

hybrid: Atomic forces (eV/Ang):
     1   -0.016911    0.045447    0.020033
     2    0.034398    0.003596   -0.034404
     3   -0.018506   -0.003360    0.005536
     4    0.002822   -0.038140    0.008767
-------------------------------------------
 Tot    0.001803    0.007543   -0.000068
-------------------------------------------
 Max    0.045447  free, atom      1
 Res    0.024250  sqrt( Sum f_i^2 / 3N )
-------------------------------------------
 Max    0.045447  cons, atom      1
 cut5.XV                          
  Econtribution          1.415203        -4120.524536            0.000000            0.000000            0.000000        -4120.524536

constr opt: Optimized Reaction Coordinate
Reaction Coordinate (Ang) :    1.41520
Total Energy (eV) :  -4120.52454
 atoms QM, MM, totals           4           0           4
 doing SCF? T
 doing forces? T
Weights: 1843us.
Particion 0: 2818000
Particion 1: 2932010
Particion 2: 3012700
Relacion max / min = 1.069092
--> Thread OMP: 4
--> Thread CPU: 3
--> Thread GPU: 1
--> Correccion de cubos chicos: 250000
--> Puntos de separacion: 200
Timer functions: 728us.
MM point charges: 0
 CONVERGED AT           2 ITERATIONS
 Lio  E(H)  -151.42643034382419     
 Lio  E(eV)  -4120.5245809405051     

*******************************
  Constrained Step :     3
*******************************

hybrid:                 ==============================
                            Begin CG move =      0
                        ==============================
 Optimization level:            3
 atoms QM, MM, totals           4           0           4
 doing SCF? T
 doing forces? T
Weights: 10196us.
Particion 0: 2818000
Particion 1: 2932010
Particion 2: 3012700
Relacion max / min = 1.069092
--> Thread OMP: 4
--> Thread CPU: 3
--> Thread GPU: 1
--> Correccion de cubos chicos: 250000
--> Puntos de separacion: 200
Timer functions: 925us.
MM point charges: 0
 CONVERGED AT           2 ITERATIONS
 Lio  E(H)  -151.42643176803614     
 Lio  E(eV)  -4120.5246196953003     

constr opt: variable constraint
icosntr  :   1
targeted :   1.277
actual   :   1.415


hybrid: Energy Decomposition (eV):
Elio :      -4120.524620

hybrid: Atomic forces (eV/Ang):
     1   -0.055393    0.063511   -0.646194
     2    0.073571   -0.013326    0.631820
     3   -0.019620   -0.003451    0.005798
     4    0.003320   -0.039202    0.008508
-------------------------------------------
 Tot    0.001878    0.007532   -0.000068
-------------------------------------------
 Max    0.646194  free, atom      1
 Res    0.263234  sqrt( Sum f_i^2 / 3N )
-------------------------------------------
 Max    0.646194  cons, atom      1

cgvc: Finished line minimization    3.  Mean atomic displacement =    0.1000
 cut5.XV                          

hybrid:                 ==============================
                            Begin CG move =      1
                        ==============================
 Optimization level:            3
 atoms QM, MM, totals           4           0           4
 doing SCF? T
 doing forces? T
Weights: 1842us.
Particion 0: 2383660
Particion 1: 2601240
Particion 2: 2508420
Relacion max / min = 1.091280
--> Thread OMP: 4
--> Thread CPU: 3
--> Thread GPU: 1
--> Correccion de cubos chicos: 250000
--> Puntos de separacion: 200
Timer functions: 410us.
MM point charges: 0
 CONVERGED AT          47 ITERATIONS
 Lio  E(H)  -151.42430472985450     
 Lio  E(eV)  -4120.4667400167518     


hybrid: Energy Decomposition (eV):
Elio :      -4120.466740

hybrid: Atomic forces (eV/Ang):
     1   -0.785313   -0.269533    8.934069
     2    0.149189   -1.042434   -8.909460
     3    1.328622    0.030061   -0.274319
     4   -0.688618    1.287916    0.253456
-------------------------------------------
 Tot    0.003880    0.006009    0.003746
-------------------------------------------
 Max    8.934069  free, atom      1
 Res    3.708469  sqrt( Sum f_i^2 / 3N )
-------------------------------------------
 Max    8.934069  cons, atom      1
 cut5.XV                          

hybrid:                 ==============================
                            Begin CG move =      2
                        ==============================
 Optimization level:            3
 atoms QM, MM, totals           4           0           4
 doing SCF? T
 doing forces? T
Weights: 4498us.
Particion 0: 2823280
Particion 1: 2932560
Particion 2: 3012700
Relacion max / min = 1.067092
--> Thread OMP: 4
--> Thread CPU: 3
--> Thread GPU: 1
--> Correccion de cubos chicos: 250000
--> Puntos de separacion: 200
Timer functions: 3150us.
MM point charges: 0
 CONVERGED AT          47 ITERATIONS
 Lio  E(H)  -151.42695142954946     
 Lio  E(eV)  -4120.5387604105945     


hybrid: Energy Decomposition (eV):
Elio :      -4120.538760

hybrid: Atomic forces (eV/Ang):
     1   -0.104109    0.043278    0.199757
     2    0.076556   -0.085996   -0.209871
     3    0.068740   -0.010128   -0.013179
     4   -0.038746    0.060797    0.024334
-------------------------------------------
 Tot    0.002441    0.007951    0.001040
-------------------------------------------
 Max    0.209871  free, atom      2
 Res    0.100294  sqrt( Sum f_i^2 / 3N )
-------------------------------------------
 Max    0.209871  cons, atom      2

cgvc: Finished line minimization    1.  Mean atomic displacement =    0.0068
 cut5.XV                          

hybrid:                 ==============================
                            Begin CG move =      3
                        ==============================
 Optimization level:            3
 atoms QM, MM, totals           4           0           4
 doing SCF? T
 doing forces? T
Weights: 1764us.
Particion 0: 2823280
Particion 1: 2932010
Particion 2: 3012700
Relacion max / min = 1.067092
--> Thread OMP: 4
--> Thread CPU: 3
--> Thread GPU: 1
--> Correccion de cubos chicos: 250000
--> Puntos de separacion: 200
Timer functions: 1048us.
MM point charges: 0
 CONVERGED AT          29 ITERATIONS
 Lio  E(H)  -151.42714668536684     
 Lio  E(eV)  -4120.5440735939883     


hybrid: Energy Decomposition (eV):
Elio :      -4120.544074

hybrid: Atomic forces (eV/Ang):
     1    0.380814    0.039994    0.483457
     2   -0.188940    0.353100   -0.482556
     3   -0.330054   -0.053274    0.020813
     4    0.140435   -0.331914   -0.020980
-------------------------------------------
 Tot    0.002253    0.007906    0.000734
-------------------------------------------
 Max    0.483457  free, atom      1
 Res    0.290993  sqrt( Sum f_i^2 / 3N )
-------------------------------------------
 Max    0.483457  cons, atom      1
 cut5.XV                          

hybrid:                 ==============================
                            Begin CG move =      4
                        ==============================
 Optimization level:            3
 atoms QM, MM, totals           4           0           4
 doing SCF? T
 doing forces? T
Weights: 6003us.
Particion 0: 2823280
Particion 1: 2931180
Particion 2: 3012700
Relacion max / min = 1.067092
--> Thread OMP: 4
--> Thread CPU: 3
--> Thread GPU: 1
--> Correccion de cubos chicos: 250000
--> Puntos de separacion: 200
Timer functions: 2147us.
MM point charges: 0
 CONVERGED AT          29 ITERATIONS
 Lio  E(H)  -151.42696483037523     
 Lio  E(eV)  -4120.5391250657722     


hybrid: Energy Decomposition (eV):
Elio :      -4120.539125

hybrid: Atomic forces (eV/Ang):
     1   -0.079892    0.043431    0.209994
     2    0.063196   -0.063925   -0.219612
     3    0.048471   -0.012247   -0.011055
     4   -0.029578    0.040803    0.021722
-------------------------------------------
 Tot    0.002198    0.008063    0.001049
-------------------------------------------
 Max    0.219612  free, atom      2
 Res    0.097600  sqrt( Sum f_i^2 / 3N )
-------------------------------------------
 Max    0.219612  cons, atom      2

cgvc: Finished line minimization    2.  Mean atomic displacement =    0.0003
 cut5.XV                          

hybrid:                 ==============================
                            Begin CG move =      5
                        ==============================
 Optimization level:            3
 atoms QM, MM, totals           4           0           4
 doing SCF? T
 doing forces? T
Weights: 1784us.
Particion 0: 2823280
Particion 1: 2931180
Particion 2: 3012700
Relacion max / min = 1.067092
--> Thread OMP: 4
--> Thread CPU: 3
--> Thread GPU: 1
--> Correccion de cubos chicos: 250000
--> Puntos de separacion: 200
Timer functions: 739us.
MM point charges: 0
 CONVERGED AT          11 ITERATIONS
 Lio  E(H)  -151.42694758740828     
 Lio  E(eV)  -4120.5386558605687     


hybrid: Energy Decomposition (eV):
Elio :      -4120.538656

hybrid: Atomic forces (eV/Ang):
     1   -0.070943    0.044387    0.178082
     2    0.059405   -0.054441   -0.188131
     3    0.038297   -0.013097   -0.009840
     4   -0.024650    0.030773    0.020193
-------------------------------------------
 Tot    0.002109    0.007622    0.000304
-------------------------------------------
 Max    0.188131  free, atom      2
 Res    0.083815  sqrt( Sum f_i^2 / 3N )
-------------------------------------------
 Max    0.188131  cons, atom      2
 cut5.XV                          

hybrid:                 ==============================
                            Begin CG move =      6
                        ==============================
 Optimization level:            3
 atoms QM, MM, totals           4           0           4
 doing SCF? T
 doing forces? T
Weights: 8922us.
Particion 0: 2823280
Particion 1: 2931180
Particion 2: 3012700
Relacion max / min = 1.067092
--> Thread OMP: 4
--> Thread CPU: 3
--> Thread GPU: 1
--> Correccion de cubos chicos: 250000
--> Puntos de separacion: 200
Timer functions: 714us.
MM point charges: 0
 CONVERGED AT          13 ITERATIONS

    ╔════════════════════════════════════════════╗
    ║        ENERGY CONTRIBUTIONS IN A.U.        ║
    ╠══════════════════╦═════════════════════════╣
    ║   ONE ELECTRON   ║      -281.8386638       ║
    ╠══════════════════╬═════════════════════════╣
    ║   COULOMB        ║       110.9734274       ║
    ╠══════════════════╬═════════════════════════╣
    ║   NUCLEAR        ║        37.0841436       ║
    ╠══════════════════╬═════════════════════════╣
    ║   EXC. - CORR.   ║       -17.6458272       ║
    ╠══════════════════╬═════════════════════════╣
    ║   TOTAL          ║      -151.4269201       ║
    ╚══════════════════╩═════════════════════════╝

 Lio  E(H)  -151.42692011271885     
 Lio  E(eV)  -4120.5379082359104     


hybrid: Energy Decomposition (eV):
Elio :      -4120.537908

hybrid: Atomic forces (eV/Ang):
     1   -0.049077    0.046017    0.126454
     2    0.048978   -0.032854   -0.135608
     3    0.016866   -0.014742   -0.007344
     4   -0.014394    0.009815    0.017273
-------------------------------------------
 Tot    0.002374    0.008236    0.000774
-------------------------------------------
 Max    0.135608  free, atom      2
 Res    0.060237  sqrt( Sum f_i^2 / 3N )
-------------------------------------------
 Max    0.135608  cons, atom      2
 cut5.XV                          

hybrid:                 ==============================
                            Begin CG move =      7
                        ==============================
 Optimization level:            3
 atoms QM, MM, totals           4           0           4
 doing SCF? T
 doing forces? T
Weights: 10563us.
Particion 0: 2823280
Particion 1: 2931730
Particion 2: 3012700
Relacion max / min = 1.067092
--> Thread OMP: 4
--> Thread CPU: 3
--> Thread GPU: 1
--> Correccion de cubos chicos: 250000
--> Puntos de separacion: 200
Timer functions: 852us.
MM point charges: 0
 CONVERGED AT          16 ITERATIONS
 Lio  E(H)  -151.42687642383680     
 Lio  E(eV)  -4120.5367194004348     


hybrid: Energy Decomposition (eV):
Elio :      -4120.536719

hybrid: Atomic forces (eV/Ang):
     1   -0.015331    0.048081    0.042556
     2    0.032735    0.000755   -0.052126
     3   -0.017332   -0.017357   -0.003333
     4    0.001953   -0.023424    0.012550
-------------------------------------------
 Tot    0.002026    0.008055   -0.000353
-------------------------------------------
 Max    0.052126  free, atom      2
 Res    0.028092  sqrt( Sum f_i^2 / 3N )
-------------------------------------------
 Max    0.052126  cons, atom      2
 cut5.XV                          
  Econtribution          1.423652        -4120.536719            0.000000            0.000000            0.000000        -4120.536719

constr opt: Optimized Reaction Coordinate
Reaction Coordinate (Ang) :    1.42365
Total Energy (eV) :  -4120.53672
 atoms QM, MM, totals           4           0           4
 doing SCF? T
 doing forces? T
Weights: 2094us.
Particion 0: 2823280
Particion 1: 2931730
Particion 2: 3012700
Relacion max / min = 1.067092
--> Thread OMP: 4
--> Thread CPU: 3
--> Thread GPU: 1
--> Correccion de cubos chicos: 250000
--> Puntos de separacion: 200
Timer functions: 826us.
MM point charges: 0
 CONVERGED AT           2 ITERATIONS
 Lio  E(H)  -151.42687744616822     
 Lio  E(eV)  -4120.5367472195003     

*******************************
  Constrained Step :     4
*******************************

hybrid:                 ==============================
                            Begin CG move =      0
                        ==============================
 Optimization level:            3
 atoms QM, MM, totals           4           0           4
 doing SCF? T
 doing forces? T
Weights: 1807us.
Particion 0: 2823280
Particion 1: 2931730
Particion 2: 3012700
Relacion max / min = 1.067092
--> Thread OMP: 4
--> Thread CPU: 3
--> Thread GPU: 1
--> Correccion de cubos chicos: 250000
--> Puntos de separacion: 200
Timer functions: 819us.
MM point charges: 0
 CONVERGED AT           2 ITERATIONS
 Lio  E(H)  -151.42687938696693     
 Lio  E(eV)  -4120.5368000313429     

constr opt: variable constraint
icosntr  :   1
targeted :   1.315
actual   :   1.424


hybrid: Energy Decomposition (eV):
Elio :      -4120.536800

hybrid: Atomic forces (eV/Ang):
     1   -0.054684    0.066618   -0.623518
     2    0.072574   -0.016738    0.613939
     3   -0.018320   -0.017436   -0.003098
     4    0.002391   -0.024388    0.012315
-------------------------------------------
 Tot    0.001961    0.008056   -0.000362
-------------------------------------------
 Max    0.623518  free, atom      1
 Res    0.254963  sqrt( Sum f_i^2 / 3N )
-------------------------------------------
 Max    0.623518  cons, atom      1

cgvc: Finished line minimization    3.  Mean atomic displacement =    0.1000
 cut5.XV                          

hybrid:                 ==============================
                            Begin CG move =      1
                        ==============================
 Optimization level:            3
 atoms QM, MM, totals           4           0           4
 doing SCF? T
 doing forces? T
Weights: 1838us.
Particion 0: 2394770
Particion 1: 2600880
Particion 2: 2508420
Relacion max / min = 1.086067
--> Thread OMP: 4
--> Thread CPU: 3
--> Thread GPU: 1
--> Correccion de cubos chicos: 250000
--> Puntos de separacion: 200
Timer functions: 404us.
MM point charges: 0
 CONVERGED AT          47 ITERATIONS
 Lio  E(H)  -151.42375157681894     
 Lio  E(eV)  -4120.4516879503799     


hybrid: Energy Decomposition (eV):
Elio :      -4120.451688

hybrid: Atomic forces (eV/Ang):
     1   -0.771049   -0.275916    8.649108
     2    0.120958   -0.881619   -8.625299
     3    1.306033    0.020770   -0.262261
     4   -0.651390    1.143192    0.242507
-------------------------------------------
 Tot    0.004551    0.006426    0.004054
-------------------------------------------
 Max    8.649108  free, atom      1
 Res    3.585042  sqrt( Sum f_i^2 / 3N )
-------------------------------------------
 Max    8.649108  cons, atom      1
 cut5.XV                          

hybrid:                 ==============================
                            Begin CG move =      2
                        ==============================
 Optimization level:            3
 atoms QM, MM, totals           4           0           4
 doing SCF? T
 doing forces? T
Weights: 1748us.
Particion 0: 2823280
Particion 1: 2931730
Particion 2: 3012700
Relacion max / min = 1.067092
--> Thread OMP: 4
--> Thread CPU: 3
--> Thread GPU: 1
--> Correccion de cubos chicos: 250000
--> Puntos de separacion: 200
Timer functions: 4374us.
MM point charges: 0
 CONVERGED AT          47 ITERATIONS
 Lio  E(H)  -151.42730181786973     
 Lio  E(eV)  -4120.5482949659772     


hybrid: Energy Decomposition (eV):
Elio :      -4120.548295

hybrid: Atomic forces (eV/Ang):
     1   -0.105120    0.045631    0.194391
     2    0.074901   -0.077154   -0.200946
     3    0.075794   -0.016015   -0.022145
     4   -0.043471    0.055640    0.030295
-------------------------------------------
 Tot    0.002104    0.008102    0.001596
-------------------------------------------
 Max    0.200946  free, atom      2
 Res    0.098004  sqrt( Sum f_i^2 / 3N )
-------------------------------------------
 Max    0.200946  cons, atom      2

cgvc: Finished line minimization    1.  Mean atomic displacement =    0.0068
 cut5.XV                          

hybrid:                 ==============================
                            Begin CG move =      3
                        ==============================
 Optimization level:            3
 atoms QM, MM, totals           4           0           4
 doing SCF? T
 doing forces? T
Weights: 1897us.
Particion 0: 2823280
Particion 1: 2932280
Particion 2: 3012700
Relacion max / min = 1.067092
--> Thread OMP: 4
--> Thread CPU: 3
--> Thread GPU: 1
--> Correccion de cubos chicos: 250000
--> Puntos de separacion: 200
Timer functions: 931us.
MM point charges: 0
 CONVERGED AT          29 ITERATIONS
 Lio  E(H)  -151.42744227957235     
 Lio  E(eV)  -4120.5521171250084     


hybrid: Energy Decomposition (eV):
Elio :      -4120.552117

hybrid: Atomic forces (eV/Ang):
     1    0.399155    0.046536    0.444956
     2   -0.181857    0.352421   -0.450543
     3   -0.348569   -0.060262    0.023229
     4    0.134226   -0.330530   -0.016516
-------------------------------------------
 Tot    0.002955    0.008165    0.001126
-------------------------------------------
 Max    0.450543  free, atom      2
 Res    0.284744  sqrt( Sum f_i^2 / 3N )
-------------------------------------------
 Max    0.450543  cons, atom      2
 cut5.XV                          

hybrid:                 ==============================
                            Begin CG move =      4
                        ==============================
 Optimization level:            3
 atoms QM, MM, totals           4           0           4
 doing SCF? T
 doing forces? T
Weights: 2897us.
Particion 0: 2823280
Particion 1: 2932010
Particion 2: 3012700
Relacion max / min = 1.067092
--> Thread OMP: 4
--> Thread CPU: 3
--> Thread GPU: 1
--> Correccion de cubos chicos: 250000
--> Puntos de separacion: 200
Timer functions: 2482us.
MM point charges: 0
 CONVERGED AT          28 ITERATIONS
 Lio  E(H)  -151.42731460872290     
 Lio  E(eV)  -4120.5486430229494     


hybrid: Energy Decomposition (eV):
Elio :      -4120.548643

hybrid: Atomic forces (eV/Ang):
     1   -0.071443    0.045095    0.206093
     2    0.057676   -0.048398   -0.214197
     3    0.047463   -0.018933   -0.018853
     4   -0.031511    0.029698    0.026920
-------------------------------------------
 Tot    0.002185    0.007462   -0.000037
-------------------------------------------
 Max    0.214197  free, atom      2
 Res    0.094308  sqrt( Sum f_i^2 / 3N )
-------------------------------------------
 Max    0.214197  cons, atom      2

cgvc: Finished line minimization    2.  Mean atomic displacement =    0.0004
 cut5.XV                          

hybrid:                 ==============================
                            Begin CG move =      5
                        ==============================
 Optimization level:            3
 atoms QM, MM, totals           4           0           4
 doing SCF? T
 doing forces? T
Weights: 1903us.
Particion 0: 2823280
Particion 1: 2932280
Particion 2: 3012700
Relacion max / min = 1.067092
--> Thread OMP: 4
--> Thread CPU: 3
--> Thread GPU: 1
--> Correccion de cubos chicos: 250000
--> Puntos de separacion: 200
Timer functions: 862us.
MM point charges: 0
 CONVERGED AT          12 ITERATIONS
 Lio  E(H)  -151.42729536801858     
 Lio  E(eV)  -4120.5481194565227     


hybrid: Energy Decomposition (eV):
Elio :      -4120.548119

hybrid: Atomic forces (eV/Ang):
     1   -0.058253    0.047242    0.164259
     2    0.052629   -0.035935   -0.171450
     3    0.032906   -0.020088   -0.016894
     4   -0.025110    0.016829    0.024937
-------------------------------------------
 Tot    0.002171    0.008047    0.000852
-------------------------------------------
 Max    0.171450  free, atom      2
 Res    0.076032  sqrt( Sum f_i^2 / 3N )
-------------------------------------------
 Max    0.171450  cons, atom      2
 cut5.XV                          

hybrid:                 ==============================
                            Begin CG move =      6
                        ==============================
 Optimization level:            3
 atoms QM, MM, totals           4           0           4
 doing SCF? T
 doing forces? T
Weights: 1795us.
Particion 0: 2823280
Particion 1: 2931180
Particion 2: 3012700
Relacion max / min = 1.067092
--> Thread OMP: 4
--> Thread CPU: 3
--> Thread GPU: 1
--> Correccion de cubos chicos: 250000
--> Puntos de separacion: 200
Timer functions: 1460us.
MM point charges: 0
 CONVERGED AT          15 ITERATIONS
 Lio  E(H)  -151.42726496660748     
 Lio  E(eV)  -4120.5472921916817     


hybrid: Energy Decomposition (eV):
Elio :      -4120.547292

hybrid: Atomic forces (eV/Ang):
     1   -0.029380    0.049150    0.093299
     2    0.040313   -0.009923   -0.101062
     3    0.003877   -0.022257   -0.013137
     4   -0.012219   -0.009075    0.021132
-------------------------------------------
 Tot    0.002592    0.007895    0.000232
-------------------------------------------
 Max    0.101062  free, atom      2
 Res    0.045900  sqrt( Sum f_i^2 / 3N )
-------------------------------------------
 Max    0.101062  cons, atom      2
 cut5.XV                          

hybrid:                 ==============================
                            Begin CG move =      7
                        ==============================
 Optimization level:            3
 atoms QM, MM, totals           4           0           4
 doing SCF? T
 doing forces? T
Weights: 1859us.
Particion 0: 2823280
Particion 1: 2931180
Particion 2: 3012700
Relacion max / min = 1.067092
--> Thread OMP: 4
--> Thread CPU: 3
--> Thread GPU: 1
--> Correccion de cubos chicos: 250000
--> Puntos de separacion: 200
Timer functions: 3223us.
MM point charges: 0
 CONVERGED AT          18 ITERATIONS
 Lio  E(H)  -151.42721334669838     
 Lio  E(eV)  -4120.5458875418872     


hybrid: Energy Decomposition (eV):
Elio :      -4120.545888

hybrid: Atomic forces (eV/Ang):
     1    0.015614    0.052440   -0.020671
     2    0.020964    0.031184    0.013401
     3   -0.042368   -0.025663   -0.007183
     4    0.008296   -0.050343    0.015080
-------------------------------------------
 Tot    0.002506    0.007617    0.000628
-------------------------------------------
 Max    0.052440  free, atom      1
 Res    0.029366  sqrt( Sum f_i^2 / 3N )
-------------------------------------------
 Max    0.052440  cons, atom      1
 cut5.XV                          
  Econtribution          1.431430        -4120.545888            0.000000            0.000000            0.000000        -4120.545888

constr opt: Optimized Reaction Coordinate
Reaction Coordinate (Ang) :    1.43143
Total Energy (eV) :  -4120.54589
 atoms QM, MM, totals           4           0           4
 doing SCF? T
 doing forces? T
Weights: 11052us.
Particion 0: 2823280
Particion 1: 2931180
Particion 2: 3012700
Relacion max / min = 1.067092
--> Thread OMP: 4
--> Thread CPU: 3
--> Thread GPU: 1
--> Correccion de cubos chicos: 250000
--> Puntos de separacion: 200
Timer functions: 790us.
MM point charges: 0
 CONVERGED AT           2 ITERATIONS

    ╔════════════════════════════════════════════╗
    ║        ENERGY CONTRIBUTIONS IN A.U.        ║
    ╠══════════════════╦═════════════════════════╣
    ║   ONE ELECTRON   ║      -281.5942210       ║
    ╠══════════════════╬═════════════════════════╣
    ║   COULOMB        ║       110.8508683       ║
    ╠══════════════════╬═════════════════════════╣
    ║   NUCLEAR        ║        36.9581387       ║
    ╠══════════════════╬═════════════════════════╣
    ║   EXC. - CORR.   ║       -17.6419997       ║
    ╠══════════════════╬═════════════════════════╣
    ║   TOTAL          ║      -151.4272138       ║
    ╚══════════════════╩═════════════════════════╝

 Lio  E(H)  -151.42721381500988     
 Lio  E(eV)  -4120.5459002852967     

*******************************
  Constrained Step :     5
*******************************

hybrid:                 ==============================
                            Begin CG move =      0
                        ==============================
 Optimization level:            3
 atoms QM, MM, totals           4           0           4
 doing SCF? T
 doing forces? T
Weights: 6059us.
Particion 0: 2823280
Particion 1: 2931180
Particion 2: 3012700
Relacion max / min = 1.067092
--> Thread OMP: 4
--> Thread CPU: 3
--> Thread GPU: 1
--> Correccion de cubos chicos: 250000
--> Puntos de separacion: 200
Timer functions: 926us.
MM point charges: 0
 CONVERGED AT           2 ITERATIONS
 Lio  E(H)  -151.42721548396656     
 Lio  E(eV)  -4120.5459456999388     

constr opt: variable constraint
icosntr  :   1
targeted :   1.354
actual   :   1.431


hybrid: Energy Decomposition (eV):
Elio :      -4120.545946

hybrid: Atomic forces (eV/Ang):
     1   -0.024472    0.071635   -0.686709
     2    0.061584    0.012967    0.679412
     3   -0.043397   -0.025732   -0.006928
[...]
 CONVERGED AT           2 ITERATIONS
 Lio  E(H)  -151.34488961622489     
 Lio  E(eV)  -4118.3057439009090     

constr opt: variable constraint
icosntr  :   1
targeted :   2.620
actual   :   2.242


hybrid: Energy Decomposition (eV):
Elio :      -4118.305744

hybrid: Atomic forces (eV/Ang):
     1   -0.075987    0.046150   -0.617276
     2    0.051190   -0.003790    0.616945
     3    0.055429   -0.036852   -0.045398
     4   -0.029634   -0.004303    0.046267
-------------------------------------------
 Tot    0.000999    0.001205    0.000539
-------------------------------------------
 Max    0.617276  free, atom      1
 Res    0.255232  sqrt( Sum f_i^2 / 3N )
-------------------------------------------
 Max    0.617276  cons, atom      1

cgvc: Finished line minimization    4.  Mean atomic displacement =    0.1000
 cut5.XV                          

hybrid:                 ==============================
                            Begin CG move =      1
                        ==============================
 Optimization level:            3
 atoms QM, MM, totals           4           0           4
 doing SCF? T
 doing forces? T
Weights: 1851us.
Particion 0: 2642680
Particion 1: 2582880
Particion 2: 2509490
Relacion max / min = 1.053075
--> Thread OMP: 4
--> Thread CPU: 3
--> Thread GPU: 1
--> Correccion de cubos chicos: 250000
--> Puntos de separacion: 200
Timer functions: 345us.
MM point charges: 0
 NO CONVERGENCE AT         2000  ITERATIONS
 Lio  E(H)  -151.32525918540355     
 Lio  E(eV)  -4117.7715724715881     


hybrid: Energy Decomposition (eV):
Elio :      -4117.771572

hybrid: Atomic forces (eV/Ang):
     1    1.494065   -0.600711    0.622776
     2   -0.590330    0.394960   -0.560476
     3   -1.553165    0.637703   -0.119468
     4    0.651975   -0.431724    0.055137
-------------------------------------------
 Tot    0.002545    0.000228   -0.002031
-------------------------------------------
 Max    1.553165  free, atom      3
 Res    0.777137  sqrt( Sum f_i^2 / 3N )
-------------------------------------------
 Max    1.553165  cons, atom      3
 cut5.XV                          

hybrid:                 ==============================
                            Begin CG move =      2
                        ==============================
 Optimization level:            3
 atoms QM, MM, totals           4           0           4
 doing SCF? T
 doing forces? T
Weights: 1754us.
Particion 0: 2867940
Particion 1: 2854190
Particion 2: 2759600
Relacion max / min = 1.039259
--> Thread OMP: 4
--> Thread CPU: 3
--> Thread GPU: 1
--> Correccion de cubos chicos: 250000
--> Puntos de separacion: 200
Timer functions: 601us.
MM point charges: 0
 CONVERGED AT          52 ITERATIONS
 Lio  E(H)  -151.33803996143826     
 Lio  E(eV)  -4118.1193552311424     


hybrid: Energy Decomposition (eV):
Elio :      -4118.119355

hybrid: Atomic forces (eV/Ang):
     1    0.727411   -0.211336    0.187252
     2   -0.220591    0.256642   -0.162836
     3   -0.636042    0.157279   -0.141914
     4    0.132002   -0.200339    0.116633
-------------------------------------------
 Tot    0.002779    0.002247   -0.000865
-------------------------------------------
 Max    0.727411  free, atom      1
 Res    0.325382  sqrt( Sum f_i^2 / 3N )
-------------------------------------------
 Max    0.727411  cons, atom      1

cgvc: Finished line minimization    1.  Mean atomic displacement =    0.0433
 cut5.XV                          

hybrid:                 ==============================
                            Begin CG move =      3
                        ==============================
 Optimization level:            3
 atoms QM, MM, totals           4           0           4
 doing SCF? T
 doing forces? T
Weights: 1892us.
Particion 0: 2644580
Particion 1: 2582080
Particion 2: 2507890
Relacion max / min = 1.054504
--> Thread OMP: 4
--> Thread CPU: 3
--> Thread GPU: 1
--> Correccion de cubos chicos: 250000
--> Puntos de separacion: 200
Timer functions: 346us.
MM point charges: 0
 NO CONVERGENCE AT         2000  ITERATIONS
 Lio  E(H)  -151.33009451723422     
 Lio  E(eV)  -4117.9031486014619     


hybrid: Energy Decomposition (eV):
Elio :      -4117.903149

hybrid: Atomic forces (eV/Ang):
     1   -1.886689    0.430864    0.269222
     2    0.459992   -0.612383   -0.334985
     3    1.831220   -0.400206    0.138646
     4   -0.404782    0.582899   -0.073971
-------------------------------------------
 Tot   -0.000259    0.001174   -0.001087
-------------------------------------------
 Max    1.886689  free, atom      1
 Res    0.844511  sqrt( Sum f_i^2 / 3N )
-------------------------------------------
 Max    1.886689  cons, atom      1
 cut5.XV                          

hybrid:                 ==============================
                            Begin CG move =      4
                        ==============================
 Optimization level:            3
 atoms QM, MM, totals           4           0           4
 doing SCF? T
 doing forces? T
Weights: 1705us.
Particion 0: 2867940
Particion 1: 2854190
Particion 2: 2759700
Relacion max / min = 1.039222
--> Thread OMP: 4
--> Thread CPU: 3
--> Thread GPU: 1
--> Correccion de cubos chicos: 250000
--> Puntos de separacion: 200
Timer functions: 580us.
MM point charges: 0
 CONVERGED AT          47 ITERATIONS
 Lio  E(H)  -151.33721866612635     
 Lio  E(eV)  -4118.0970066390691     


hybrid: Energy Decomposition (eV):
Elio :      -4118.097007

hybrid: Atomic forces (eV/Ang):
     1    0.363463   -0.109493    0.271367
     2   -0.117168    0.150478   -0.257292
     3   -0.263639    0.050784   -0.127162
     4    0.019889   -0.089357    0.110311
-------------------------------------------
 Tot    0.002545    0.002412   -0.002776
-------------------------------------------
 Max    0.363463  free, atom      1
 Res    0.189101  sqrt( Sum f_i^2 / 3N )
-------------------------------------------
 Max    0.363463  cons, atom      1

cgvc: Finished line minimization    2.  Mean atomic displacement =    0.0069
 cut5.XV                          

hybrid:                 ==============================
                            Begin CG move =      5
                        ==============================
 Optimization level:            3
 atoms QM, MM, totals           4           0           4
 doing SCF? T
 doing forces? T
Weights: 1782us.
Particion 0: 2866040
Particion 1: 2854190
Particion 2: 2759700
Relacion max / min = 1.038533
--> Thread OMP: 4
--> Thread CPU: 3
--> Thread GPU: 1
--> Correccion de cubos chicos: 250000
--> Puntos de separacion: 200
Timer functions: 590us.
MM point charges: 0
 CONVERGED AT          25 ITERATIONS
 Lio  E(H)  -151.33820061374570     
 Lio  E(eV)  -4118.1237268047198     


hybrid: Energy Decomposition (eV):
Elio :      -4118.123727

hybrid: Atomic forces (eV/Ang):
     1   -0.028179    0.008701    0.143314
     2    0.022204    0.020887   -0.139349
     3    0.108063   -0.055908   -0.093148
     4   -0.099606    0.028792    0.085937
-------------------------------------------
 Tot    0.002482    0.002473   -0.003246
-------------------------------------------
 Max    0.143314  free, atom      1
 Res    0.083352  sqrt( Sum f_i^2 / 3N )
-------------------------------------------
 Max    0.143314  cons, atom      1
 cut5.XV                          

hybrid:                 ==============================
                            Begin CG move =      6
                        ==============================
 Optimization level:            3
 atoms QM, MM, totals           4           0           4
 doing SCF? T
 doing forces? T
Weights: 1686us.
Particion 0: 2862420
Particion 1: 2854190
Particion 2: 2759600
Relacion max / min = 1.037259
--> Thread OMP: 4
--> Thread CPU: 3
--> Thread GPU: 1
--> Correccion de cubos chicos: 250000
--> Puntos de separacion: 200
Timer functions: 582us.
MM point charges: 0
 CONVERGED AT          31 ITERATIONS
 Lio  E(H)  -151.33969531258947     
 Lio  E(eV)  -4118.1643996470557     


hybrid: Energy Decomposition (eV):
Elio :      -4118.164400

hybrid: Atomic forces (eV/Ang):
     1   -0.678666    0.200899   -0.062087
     2    0.202572   -0.163645    0.040818
     3    0.720654   -0.227284   -0.041843
     4   -0.243210    0.192099    0.059734
-------------------------------------------
 Tot    0.001350    0.002070   -0.003378
-------------------------------------------
 Max    0.720654  free, atom      3
 Res    0.322316  sqrt( Sum f_i^2 / 3N )
-------------------------------------------
 Max    0.720654  cons, atom      3
 cut5.XV                          

hybrid:                 ==============================
                            Begin CG move =      7
                        ==============================
 Optimization level:            3
 atoms QM, MM, totals           4           0           4
 doing SCF? T
 doing forces? T
Weights: 1710us.
Particion 0: 2860520
Particion 1: 2854190
Particion 2: 2759600
Relacion max / min = 1.036571
--> Thread OMP: 4
--> Thread CPU: 3
--> Thread GPU: 1
--> Correccion de cubos chicos: 250000
--> Puntos de separacion: 200
Timer functions: 610us.
MM point charges: 0
 CONVERGED AT          28 ITERATIONS
 Lio  E(H)  -151.33856687296961     
 Lio  E(eV)  -4118.1336932295490     


hybrid: Energy Decomposition (eV):
Elio :      -4118.133693

hybrid: Atomic forces (eV/Ang):
     1   -0.184806    0.056401    0.094040
     2    0.060984   -0.033269   -0.096128
     3    0.252183   -0.097740   -0.078829
     4   -0.126154    0.076742    0.079355
-------------------------------------------
 Tot    0.002208    0.002135   -0.001562
-------------------------------------------
 Max    0.252183  free, atom      3
 Res    0.118219  sqrt( Sum f_i^2 / 3N )
-------------------------------------------
 Max    0.252183  cons, atom      3

cgvc: Finished line minimization    3.  Mean atomic displacement =    0.0094
 cut5.XV                          

hybrid:                 ==============================
                            Begin CG move =      8
                        ==============================
 Optimization level:            3
 atoms QM, MM, totals           4           0           4
 doing SCF? T
 doing forces? T
Weights: 1717us.
Particion 0: 2860520
Particion 1: 2853090
Particion 2: 2757920
Relacion max / min = 1.037202
--> Thread OMP: 4
--> Thread CPU: 3
--> Thread GPU: 1
--> Correccion de cubos chicos: 250000
--> Puntos de separacion: 200
Timer functions: 588us.
MM point charges: 0
 CONVERGED AT          25 ITERATIONS
 Lio  E(H)  -151.33987275778253     
 Lio  E(eV)  -4118.1692281784963     


hybrid: Energy Decomposition (eV):
Elio :      -4118.169228

hybrid: Atomic forces (eV/Ang):
     1    0.049747   -0.003077   -0.048662
     2   -0.005604    0.044636    0.052043
     3   -0.008906   -0.023313   -0.067560
     4   -0.034043   -0.015336    0.064013
-------------------------------------------
 Tot    0.001194    0.002910   -0.000166
-------------------------------------------
 Max    0.067560  free, atom      3
 Res    0.041093  sqrt( Sum f_i^2 / 3N )
-------------------------------------------
 Max    0.067560  cons, atom      3
 cut5.XV                          
  Econtribution          2.289595        -4118.169228            0.000000            0.000000            0.000000        -4118.169228

constr opt: Optimized Reaction Coordinate
Reaction Coordinate (Ang) :    2.28959
Total Energy (eV) :  -4118.16923
 atoms QM, MM, totals           4           0           4
 doing SCF? T
 doing forces? T
Weights: 1725us.
Particion 0: 2860520
Particion 1: 2853090
Particion 2: 2757920
Relacion max / min = 1.037202
--> Thread OMP: 4
--> Thread CPU: 3
--> Thread GPU: 1
--> Correccion de cubos chicos: 250000
--> Puntos de separacion: 200
Timer functions: 630us.
MM point charges: 0
 CONVERGED AT           2 ITERATIONS
 Lio  E(H)  -151.33987159765655     
 Lio  E(eV)  -4118.1691966098488     

*******************************
  Constrained Step :    39
*******************************

hybrid:                 ==============================
                            Begin CG move =      0
                        ==============================
 Optimization level:            3
 atoms QM, MM, totals           4           0           4
 doing SCF? T
 doing forces? T
Weights: 1722us.
Particion 0: 2860520
Particion 1: 2853090
Particion 2: 2757920
Relacion max / min = 1.037202
--> Thread OMP: 4
--> Thread CPU: 3
--> Thread GPU: 1
--> Correccion de cubos chicos: 250000
--> Puntos de separacion: 200
Timer functions: 758us.
MM point charges: 0
 CONVERGED AT           2 ITERATIONS

    ╔════════════════════════════════════════════╗
    ║        ENERGY CONTRIBUTIONS IN A.U.        ║
    ╠══════════════════╦═════════════════════════╣
    ║   ONE ELECTRON   ║      -261.8595112       ║
    ╠══════════════════╬═════════════════════════╣
    ║   COULOMB        ║       100.9086529       ║
    ╠══════════════════╬═════════════════════════╣
    ║   NUCLEAR        ║        27.0723063       ║
    ╠══════════════════╬═════════════════════════╣
    ║   EXC. - CORR.   ║       -17.4613225       ║
    ╠══════════════════╬═════════════════════════╣
    ║   TOTAL          ║      -151.3398745       ║
    ╚══════════════════╩═════════════════════════╝

 Lio  E(H)  -151.33987453789271     
 Lio  E(eV)  -4118.1692766177794     

constr opt: variable constraint
icosntr  :   1
targeted :   2.659
actual   :   2.290


hybrid: Energy Decomposition (eV):
Elio :      -4118.169277

hybrid: Atomic forces (eV/Ang):
     1   -0.004240    0.027399   -0.712548
     2    0.048411    0.013550    0.715866
     3   -0.008494   -0.023378   -0.067480
     4   -0.034517   -0.014701    0.063921
-------------------------------------------
 Tot    0.001161    0.002869   -0.000241
-------------------------------------------
 Max    0.715866  free, atom      2
 Res    0.293563  sqrt( Sum f_i^2 / 3N )
-------------------------------------------
 Max    0.715866  cons, atom      2

cgvc: Finished line minimization    4.  Mean atomic displacement =    0.1000
 cut5.XV                          

hybrid:                 ==============================
                            Begin CG move =      1
                        ==============================
 Optimization level:            3
 atoms QM, MM, totals           4           0           4
 doing SCF? T
 doing forces? T
Weights: 1817us.
Particion 0: 2655980
Particion 1: 2582340
Particion 2: 2507790
Relacion max / min = 1.059092
--> Thread OMP: 4
--> Thread CPU: 3
--> Thread GPU: 1
--> Correccion de cubos chicos: 250000
--> Puntos de separacion: 200
Timer functions: 340us.
MM point charges: 0
 NO CONVERGENCE AT         2000  ITERATIONS
 Lio  E(H)  -151.32653178966751     
 Lio  E(eV)  -4117.8062018103337     


hybrid: Energy Decomposition (eV):
Elio :      -4117.806202

hybrid: Atomic forces (eV/Ang):
     1    0.571546   -0.201415    1.201505
     2   -0.704142    0.665843   -1.259172
     3   -0.340825    0.068856   -0.201038
     4    0.476713   -0.527524    0.256907
-------------------------------------------
 Tot    0.003293    0.005760   -0.001798
-------------------------------------------
 Max    1.259172  free, atom      2
 Res    0.649896  sqrt( Sum f_i^2 / 3N )
-------------------------------------------
 Max    1.259172  cons, atom      2
 cut5.XV                          

hybrid:                 ==============================
                            Begin CG move =      2
                        ==============================
 Optimization level:            3
 atoms QM, MM, totals           4           0           4
 doing SCF? T
 doing forces? T
Weights: 1680us.
Particion 0: 2862420
Particion 1: 2852370
Particion 2: 2757990
Relacion max / min = 1.037865
--> Thread OMP: 4
--> Thread CPU: 3
--> Thread GPU: 1
--> Correccion de cubos chicos: 250000
--> Puntos de separacion: 200
Timer functions: 611us.
MM point charges: 0
 NO CONVERGENCE AT         2000  ITERATIONS
 Lio  E(H)  -151.33304281405063     
 Lio  E(eV)  -4117.9833758740479     


hybrid: Energy Decomposition (eV):
Elio :      -4117.983376

hybrid: Atomic forces (eV/Ang):
     1    0.313873    0.029230   -0.110356
     2   -0.232578    0.427765    0.099908
     3   -0.124560   -0.138065   -0.206246
     4    0.048174   -0.313169    0.215410
-------------------------------------------
 Tot    0.004909    0.005762   -0.001284
-------------------------------------------
 Max    0.427765  free, atom      2
 Res    0.220325  sqrt( Sum f_i^2 / 3N )
-------------------------------------------
 Max    0.427765  cons, atom      2

cgvc: Finished line minimization    1.  Mean atomic displacement =    0.0369
 cut5.XV                          

hybrid:                 ==============================
                            Begin CG move =      3
                        ==============================
 Optimization level:            3
 atoms QM, MM, totals           4           0           4
 doing SCF? T
 doing forces? T
Weights: 1776us.
Particion 0: 2642060
Particion 1: 2581980
Particion 2: 2507830
Relacion max / min = 1.053524
--> Thread OMP: 4
--> Thread CPU: 3
--> Thread GPU: 1
--> Correccion de cubos chicos: 250000
--> Puntos de separacion: 200
Timer functions: 341us.
MM point charges: 0
 NO CONVERGENCE AT         2000  ITERATIONS
 Lio  E(H)  -151.32746137301083     
 Lio  E(eV)  -4117.8314970709262     


hybrid: Energy Decomposition (eV):
Elio :      -4117.831497

hybrid: Atomic forces (eV/Ang):
     1   -1.420259    0.311584   -0.332612
     2    1.985071   -2.013204    0.424575
     3    1.275628   -0.229068    0.158749
     4   -1.839451    1.930197   -0.249582
-------------------------------------------
 Tot    0.000989   -0.000491    0.001130
-------------------------------------------
 Max    2.013204  free, atom      2
 Res    1.267381  sqrt( Sum f_i^2 / 3N )
-------------------------------------------
 Max    2.013204  cons, atom      2
 cut5.XV                          

hybrid:                 ==============================
                            Begin CG move =      4
                        ==============================
 Optimization level:            3
 atoms QM, MM, totals           4           0           4
 doing SCF? T
 doing forces? T
Weights: 1762us.
Particion 0: 2647110
Particion 1: 2581980
Particion 2: 2507790
Relacion max / min = 1.055555
--> Thread OMP: 4
--> Thread CPU: 3
--> Thread GPU: 1
--> Correccion de cubos chicos: 250000
--> Puntos de separacion: 200
Timer functions: 346us.
MM point charges: 0
 NO CONVERGENCE AT         2000  ITERATIONS
 Lio  E(H)  -151.33166903037181     
 Lio  E(eV)  -4117.9459933021635     


hybrid: Energy Decomposition (eV):
Elio :      -4117.945993

hybrid: Atomic forces (eV/Ang):
     1   -0.298309   -0.006513   -0.349837
     2    0.293421   -0.363745    0.351322
     3    0.197410    0.061851    0.023519
     4   -0.191398    0.309273   -0.025923
-------------------------------------------
 Tot    0.001125    0.000865   -0.000918
-------------------------------------------
 Max    0.363745  free, atom      2
 Res    0.246569  sqrt( Sum f_i^2 / 3N )
-------------------------------------------
 Max    0.363745  cons, atom      2

cgvc: Finished line minimization    2.  Mean atomic displacement =    0.0080
 cut5.XV                          

hybrid:                 ==============================
                            Begin CG move =      5
                        ==============================
 Optimization level:            3
 atoms QM, MM, totals           4           0           4
 doing SCF? T
 doing forces? T
Weights: 1769us.
Particion 0: 2640150
Particion 1: 2581880
Particion 2: 2507790
Relacion max / min = 1.052780
--> Thread OMP: 4
--> Thread CPU: 3
--> Thread GPU: 1
--> Correccion de cubos chicos: 250000
--> Puntos de separacion: 200
Timer functions: 346us.
MM point charges: 0
 NO CONVERGENCE AT         2000  ITERATIONS
 stop for not convergion 4 times
