HYBRID 1.1.17 -- [ MMxQM w/ LA ] (31 Ago 2005)
Architecture  : 
Compiler flags: ifort -w -O2 -mp
SERIAL version

hybrid: Running in serial mode
>> Start of run:  11-DEC-2017  16:24:21

                           ***********************       
                           *  WELCOME TO HYBRID  *       
                           ***********************       

reinit: Reading from standard input
************************** Dump of input data file ****************************
SystemName     cut5
SystemLabel    cut5
CenterMolecule T
NumberOfAtoms         4
NumberOfSpecies      2
NetCharge 0.0
FixSpin  T
TotalSpin 0.0
MD.MaxForceTol    0.04 eV/Ang
NumberOfSolventAtoms      0
%block ConstrainedOpt
nconstr 1
steps 99
type 2
kte 200
inicoord 1.2 fincoord  5.000
atoms 1 2
%endblock ConstrainedOpt
%block ChemicalSpeciesLabel
       1   8  O
       2   1  H
%endblock ChemicalSpeciesLabel
AtomicCoordinatesFormat  Ang
%block AtomicCoordinatesAndAtomicSpecies
   0.00000   0.00000   0.000000        1
   0.00000   0.00000   1.480000        1
   0.89567   0.00000  -0.316663        2
  -0.44783   0.77567   1.796667        2
%endblock AtomicCoordinatesAndAtomicSpecies
%block SoluteAtomTypes
  OH  O1    AOX
  OH  O2    AOX
  HO  H1    AOX
  HO  H2    AOX
%endblock SoluteAtomTypes
PAO.BasisType split
PAO.BasisSize       DZP
PAO.EnergyShift      25 meV
PAO.SplitNorm       0.15
WriteMDXmol F
WriteMullikenPop 0
XC.functional       GGA
XC.authors          PBE
MeshCutoff         150.0 Ry
SpinPolarized        T
MaxSCFIterations    80
DM.MixingWeight      0.1
DM.NumberPulay       3
DM.UseSaveDM   T
MD.USeSaveXV   T
MD.UseSaveCG   T
LongOutput    F
MD.TypeOfRun    CG
MD.NumCGsteps   500
%block CutOffRadius
QM  0.2
QMMM 100.0
MM 80.0
BLO 80.0
%endblock CutOffRadius
%block SolventInput
%endblock SolventInput
************************** End of input data file *****************************

reinit: -----------------------------------------------------------------------
reinit: System Name: cut5                                                       
reinit: -----------------------------------------------------------------------
reinit: System Label: cut5                
reinit: -----------------------------------------------------------------------

hybrid: Running with no MM atoms
 
read:***********************************************************************
read: Atomic-coordinates input format  =     Cartesian coordinates (in Ang)
read: Total number of electrons        =    18
read: Dynamics option                  =     CG coord. optimization
read: Use continuation files for CG    =     T
read: Use continuation files for XV    =     T
read: Maximum number of CG moves       =   500
read: Max atomic displ per move        =     0.2000  Bohr
read: Force tolerance                  =     0.0016  Ry/Bohr
read: Write coordinates each           =     1  steps
read: Mulliken population analysis     =     0
read: MM x QM steps                    =     1
read: Write forces QM-MM               =     1
read: ***********************************************************************
 buscando cut5.XV                          

ioxv: WARNING: XV file not found
<====== Initializing G2G ======>
GPU Device used: GeForce GTX 580
Kernels: gpu
Kernels: cpu
Using 3 CPU Threads and 1 GPU Threads
 JOB STARTED NOW
lun dic 11 16:24:21 -03 2017
basis set corresponding to Z   6 was not used
basis set corresponding to Z   7 was not used
basis set corresponding to Z  17 was not used
basis set corresponding to Z  26 was not used
basis set corresponding to Z  16 was not used
<======= GPU Code Initialization ========>
atoms: 4
max atoms: 4
number of gaussians: 34
do_forces: false
s: 10 p: 4 d: 2
m: 34 nco: 9
 nco: 9
density basis: s: 22 p: 6 d: 6
density basis: m: 76
Using device 0 for analytic integral calculations

hybrid: unit cell vectors (Ang) from siesta run:
        0.000000    0.000000    0.000000
        0.000000    0.000000    0.000000
        0.000000    0.000000    0.000000

center: System centered in cell

constr opt: Starting a Constrained  optimization run
 
*******************************
  Constrained Step :     1
*******************************

hybrid:                 ==============================
                            Begin CG move =      0
                        ==============================
 nivel de optimizacion:            3
 defino cuts 
 doing SCF_in
 atoms QM, MM, totals           4           0           4
 doing SCF? T
 doing forces? T
Weights: 201893us.
Particion 0: 3071760
Particion 1: 2904010
Particion 2: 3010600
Relacion max / min = 1.057765
--> Thread OMP: 4
--> Thread CPU: 3
--> Thread GPU: 1
--> Correccion de cubos chicos: 250000
--> Puntos de separacion: 200
Timer functions: 960us.
MM point charges: 0
XC energy: 0
XC energy: 0
XC energy: 0
XC energy: 0
XC energy: 0
XC energy: 0
XC energy: 0
XC energy: 0
XC energy: 0
XC energy: 0
XC energy: 0
XC energy: 0
XC energy: 0
XC energy: 0
XC energy: 0
XC energy: 0
XC energy: 0
XC energy: 0
XC energy: 0
XC energy: 0
XC energy: 0
XC energy: 0
XC energy: 0
XC energy: 0
XC energy: 0
XC energy: 0
XC energy: 0
XC energy: 0
XC energy: 0
XC energy: 0
XC energy: 0
XC energy: 0
XC energy: 0
XC energy: 0
XC energy: 0
XC energy: 0
XC energy: 0
XC energy: 0
XC energy: 0
XC energy: 0
XC energy: 0
XC energy: 0
XC energy: 0
XC energy: 0
XC energy: 0
XC energy: 0
XC energy: 0
XC energy: 0
XC energy: 0
XC energy: 0
XC energy: 0
XC energy: 0
XC energy: 0
XC energy: 0
XC energy: 0
XC energy: 0
XC energy: 0
XC energy: 0
XC energy: 0
XC energy: 0
XC energy: 0
XC energy: 0
XC energy: 0
XC energy: 0
XC energy: 0
XC energy: 0
XC energy: 0
XC energy: 0
XC energy: 0
XC energy: 0
XC energy: 0
XC energy: 0
XC energy: 0
XC energy: 0
XC energy: 0
XC energy: 0
XC energy: 0
XC energy: 0
XC energy: 0
XC energy: 0
XC energy: 0
XC energy: 0
XC energy: 0
XC energy: 0
XC energy: 0
XC energy: 0
XC energy: 0
XC energy: 0
XC energy: 0
 CONVERGED AT          89 ITERATIONS
XC energy: -17.6437
 
    ╔════════════════════════════════════════════╗
    ║        ENERGY CONTRIBUTIONS IN A.U.        ║
    ╠══════════════════╦═════════════════════════╣
    ║   ONE ELECTRON   ║      -280.1165243       ║
    ╠══════════════════╬═════════════════════════╣
    ║   COULOMB        ║       110.1265689       ║
    ╠══════════════════╬═════════════════════════╣
    ║   NUCLEAR        ║        36.2151634       ║
    ╠══════════════════╬═════════════════════════╣
    ║   EXC. - CORR.   ║       -17.6436822       ║
    ╠══════════════════╬═════════════════════════╣
    ║   TOTAL          ║      -151.4184742       ║
    ╚══════════════════╩═════════════════════════╝
 
 Lio  E(H)  -151.418474224686     
 Lio  E(eV)  -4120.30808383097     
XC energy: -17.6437

constr opt: variable constraint
icosntr  :   1
type     :   2
atoms    :   1   2
constant : 200.000
steps    :  99
initial  :   1.200
final    :   5.000
targeted :   1.200
actual   :   1.480
 

hybrid: Energy Decomposition (eV):
Esiesta:      -4120.308084

hybrid: Total Free Atoms:      4

hybrid: Atomic forces (eV/Ang):
     1   -6.433974    1.018610    6.126124
     2    4.099593   -5.063457   -6.126682
     3    4.237533    0.255704    0.981867
     4   -1.897678    3.797642   -0.982756
-------------------------------------------
 Tot    0.005474    0.008499   -0.001447
-------------------------------------------
 Max    6.433974  free, atom      1
 Res    4.061195  sqrt( Sum f_i^2 / 3N )
-------------------------------------------
 Max    6.433974  cons, atom      1

iocg: Reading CG continuation file

cgvc: Finished line minimization    5.  Mean atomic displacement =    0.0080
 centrando sistema

hybrid:                 ==============================
                            Begin CG move =      1
                        ==============================
 nivel de optimizacion:            3
 doing SCF_in
 atoms QM, MM, totals           4           0           4
 doing SCF? T
 doing forces? T
Weights: 2716us.
Particion 0: 3071760
Particion 1: 2904010
Particion 2: 3010600
Relacion max / min = 1.057765
--> Thread OMP: 4
--> Thread CPU: 3
--> Thread GPU: 1
--> Correccion de cubos chicos: 250000
--> Puntos de separacion: 200
Timer functions: 1185us.
MM point charges: 0
XC energy: 0
XC energy: 0
XC energy: 0
XC energy: 0
XC energy: 0
XC energy: 0
XC energy: 0
XC energy: 0
XC energy: 0
XC energy: 0
XC energy: 0
XC energy: 0
XC energy: 0
XC energy: 0
XC energy: 0
XC energy: 0
XC energy: 0
XC energy: 0
XC energy: 0
XC energy: 0
XC energy: 0
XC energy: 0
XC energy: 0
XC energy: 0
XC energy: 0
XC energy: 0
XC energy: 0
XC energy: 0
XC energy: 0
 CONVERGED AT          29 ITERATIONS
XC energy: -17.6507
 Lio  E(H)  -151.416733827739     
 Lio  E(eV)  -4120.26072520020     
XC energy: -17.6507
 

hybrid: Energy Decomposition (eV):
Esiesta:      -4120.260725

hybrid: Atomic forces (eV/Ang):
     1   -7.436932    1.075875    6.346959
     2    4.650177   -5.902592   -6.346888
     3    5.122806    0.266953    0.772112
     4   -2.330067    4.568692   -0.773525
-------------------------------------------
 Tot    0.005984    0.008928   -0.001343
-------------------------------------------
 Max    7.436932  free, atom      1
 Res    4.539715  sqrt( Sum f_i^2 / 3N )
-------------------------------------------
 Max    7.436932  cons, atom      1
 centrando sistema

hybrid:                 ==============================
                            Begin CG move =      2
                        ==============================
 nivel de optimizacion:            3
 doing SCF_in
 atoms QM, MM, totals           4           0           4
 doing SCF? T
 doing forces? T
Weights: 8883us.
Particion 0: 3099790
Particion 1: 2903090
Particion 2: 3010420
Relacion max / min = 1.067755
--> Thread OMP: 4
--> Thread CPU: 3
--> Thread GPU: 1
--> Correccion de cubos chicos: 250000
--> Puntos de separacion: 200
Timer functions: 1151us.
MM point charges: 0
XC energy: 0
XC energy: 0
XC energy: 0
XC energy: 0
XC energy: 0
XC energy: 0
XC energy: 0
XC energy: 0
XC energy: 0
XC energy: 0
XC energy: 0
XC energy: 0
XC energy: 0
XC energy: 0
XC energy: 0
XC energy: 0
XC energy: 0
XC energy: 0
XC energy: 0
XC energy: 0
XC energy: 0
XC energy: 0
XC energy: 0
XC energy: 0
XC energy: 0
XC energy: 0
XC energy: 0
XC energy: 0
XC energy: 0
XC energy: 0
XC energy: 0
XC energy: 0
XC energy: 0
XC energy: 0
XC energy: 0
XC energy: 0
XC energy: 0
XC energy: 0
XC energy: 0
XC energy: 0
XC energy: 0
XC energy: 0
XC energy: 0
XC energy: 0
 CONVERGED AT          44 ITERATIONS
XC energy: -17.6066
 Lio  E(H)  -151.423444667908     
 Lio  E(eV)  -4120.44333653042     
XC energy: -17.6066
 

hybrid: Energy Decomposition (eV):
Esiesta:      -4120.443337

hybrid: Atomic forces (eV/Ang):
     1   -1.666199    0.713422    5.272336
     2    1.453846   -1.088925   -5.275820
     3    0.101611    0.194582    1.809660
     4    0.114525    0.190372   -1.807909
-------------------------------------------
 Tot    0.003782    0.009451   -0.001734
-------------------------------------------
 Max    5.275820  free, atom      2
 Res    2.395436  sqrt( Sum f_i^2 / 3N )
-------------------------------------------
 Max    5.275820  cons, atom      2

cgvc: Finished line minimization    6.  Mean atomic displacement =    0.0432
 centrando sistema

hybrid:                 ==============================
                            Begin CG move =      3
                        ==============================
 nivel de optimizacion:            3
 doing SCF_in
 atoms QM, MM, totals           4           0           4
 doing SCF? T
 doing forces? T
Weights: 100515us.
Particion 0: 3120910
Particion 1: 2904360
Particion 2: 3010750
Relacion max / min = 1.074560
--> Thread OMP: 4
--> Thread CPU: 3
--> Thread GPU: 1
--> Correccion de cubos chicos: 250000
--> Puntos de separacion: 200
Timer functions: 1147us.
MM point charges: 0
XC energy: 0
XC energy: 0
XC energy: 0
XC energy: 0
XC energy: 0
XC energy: 0
XC energy: 0
XC energy: 0
XC energy: 0
XC energy: 0
XC energy: 0
XC energy: 0
XC energy: 0
XC energy: 0
XC energy: 0
XC energy: 0
XC energy: 0
XC energy: 0
XC energy: 0
XC energy: 0
XC energy: 0
XC energy: 0
XC energy: 0
XC energy: 0
XC energy: 0
XC energy: 0
XC energy: 0
XC energy: 0
XC energy: 0
XC energy: 0
XC energy: 0
XC energy: 0
XC energy: 0
XC energy: 0
XC energy: 0
XC energy: 0
XC energy: 0
XC energy: 0
XC energy: 0
XC energy: 0
XC energy: 0
XC energy: 0
XC energy: 0
 CONVERGED AT          43 ITERATIONS
XC energy: -17.5905
 Lio  E(H)  -151.422651488627     
 Lio  E(eV)  -4120.42175301480     
XC energy: -17.5905
 

hybrid: Energy Decomposition (eV):
Esiesta:      -4120.421753

hybrid: Atomic forces (eV/Ang):
     1    1.824964    0.418833    2.479745
     2   -0.547102    1.791465   -2.484578
     3   -2.860840    0.184055    2.202046
     4    1.586478   -2.381877   -2.198672
-------------------------------------------
 Tot    0.003500    0.012476   -0.001459
-------------------------------------------
 Max    2.860840  free, atom      3
 Res    1.945691  sqrt( Sum f_i^2 / 3N )
-------------------------------------------
 Max    2.860840  cons, atom      3
 centrando sistema

hybrid:                 ==============================
                            Begin CG move =      4
                        ==============================
 nivel de optimizacion:            3
 doing SCF_in
 atoms QM, MM, totals           4           0           4
 doing SCF? T
 doing forces? T
Weights: 2875us.
Particion 0: 3131470
Particion 1: 2904360
Particion 2: 3010750
Relacion max / min = 1.078196
--> Thread OMP: 4
--> Thread CPU: 3
--> Thread GPU: 1
--> Correccion de cubos chicos: 250000
--> Puntos de separacion: 200
Timer functions: 926us.
MM point charges: 0
XC energy: 0
XC energy: 0
XC energy: 0
XC energy: 0
XC energy: 0
XC energy: 0
XC energy: 0
XC energy: 0
XC energy: 0
XC energy: 0
XC energy: 0
XC energy: 0
XC energy: 0
XC energy: 0
XC energy: 0
XC energy: 0
XC energy: 0
XC energy: 0
XC energy: 0
XC energy: 0
XC energy: 0
XC energy: 0
XC energy: 0
XC energy: 0
XC energy: 0
XC energy: 0
XC energy: 0
XC energy: 0
XC energy: 0
XC energy: 0
 CONVERGED AT          30 ITERATIONS
XC energy: -17.5929
 Lio  E(H)  -151.423169597961     
 Lio  E(eV)  -4120.43585149313     
XC energy: -17.5929
 

hybrid: Energy Decomposition (eV):
Esiesta:      -4120.435851

hybrid: Atomic forces (eV/Ang):
     1    1.312876    0.467422    2.932570
     2   -0.248994    1.371548   -2.937199
     3   -2.433250    0.184212    2.160363
     4    1.372772   -2.011103   -2.157302
-------------------------------------------
 Tot    0.003403    0.012079   -0.001568
-------------------------------------------
 Max    2.937199  free, atom      2
 Res    1.877879  sqrt( Sum f_i^2 / 3N )
-------------------------------------------
 Max    2.937199  cons, atom      2

cgvc: Finished line minimization    7.  Mean atomic displacement =    0.0361
 centrando sistema

hybrid:                 ==============================
                            Begin CG move =      5
                        ==============================
 nivel de optimizacion:            3
 doing SCF_in
 atoms QM, MM, totals           4           0           4
 doing SCF? T
 doing forces? T
Weights: 2888us.
Particion 0: 3130380
Particion 1: 2901530
Particion 2: 3010870
Relacion max / min = 1.078872
--> Thread OMP: 4
--> Thread CPU: 3
--> Thread GPU: 1
--> Correccion de cubos chicos: 250000
--> Puntos de separacion: 200
Timer functions: 1146us.
MM point charges: 0
XC energy: 0
XC energy: 0
XC energy: 0
XC energy: 0
XC energy: 0
XC energy: 0
XC energy: 0
XC energy: 0
XC energy: 0
XC energy: 0
XC energy: 0
XC energy: 0
XC energy: 0
XC energy: 0
XC energy: 0
XC energy: 0
XC energy: 0
XC energy: 0
XC energy: 0
XC energy: 0
XC energy: 0
XC energy: 0
XC energy: 0
XC energy: 0
XC energy: 0
XC energy: 0
XC energy: 0
XC energy: 0
XC energy: 0
XC energy: 0
XC energy: 0
XC energy: 0
XC energy: 0
XC energy: 0
XC energy: 0
XC energy: 0
XC energy: 0
XC energy: 0
XC energy: 0
 CONVERGED AT          39 ITERATIONS
XC energy: -17.6218
 Lio  E(H)  -151.423298286033     
 Lio  E(eV)  -4120.43935327523     
XC energy: -17.6218
 

hybrid: Energy Decomposition (eV):
Esiesta:      -4120.439353

hybrid: Atomic forces (eV/Ang):
     1    0.416293    0.474516    0.239186
     2    0.203787    0.600655   -0.243488
     3   -1.625004    0.226940    1.875594
     4    1.006980   -1.291754   -1.873507
-------------------------------------------
 Tot    0.002057    0.010357   -0.002215
-------------------------------------------
 Max    1.875594  free, atom      3
 Res    1.053563  sqrt( Sum f_i^2 / 3N )
-------------------------------------------
 Max    1.875594  cons, atom      3
 centrando sistema

hybrid:                 ==============================
                            Begin CG move =      6
                        ==============================
 nivel de optimizacion:            3
 doing SCF_in
 atoms QM, MM, totals           4           0           4
 doing SCF? T
 doing forces? T
Weights: 7353us.
Particion 0: 2890790
Particion 1: 2896350
Particion 2: 2763000
Relacion max / min = 1.048263
--> Thread OMP: 4
--> Thread CPU: 3
--> Thread GPU: 1
--> Correccion de cubos chicos: 250000
--> Puntos de separacion: 200
Timer functions: 2101us.
MM point charges: 0
XC energy: 0
XC energy: 0
XC energy: 0
XC energy: 0
XC energy: 0
XC energy: 0
XC energy: 0
XC energy: 0
XC energy: 0
XC energy: 0
XC energy: 0
XC energy: 0
XC energy: 0
XC energy: 0
XC energy: 0
XC energy: 0
XC energy: 0
XC energy: 0
XC energy: 0
XC energy: 0
XC energy: 0
XC energy: 0
XC energy: 0
XC energy: 0
XC energy: 0
XC energy: 0
XC energy: 0
XC energy: 0
XC energy: 0
XC energy: 0
XC energy: 0
XC energy: 0
XC energy: 0
XC energy: 0
XC energy: 0
XC energy: 0
XC energy: 0
XC energy: 0
XC energy: 0
XC energy: 0
XC energy: 0
XC energy: 0
 CONVERGED AT          42 ITERATIONS
XC energy: -17.6722
 Lio  E(H)  -151.418612386260     
 Lio  E(eV)  -4120.31184340029     
XC energy: -17.6722
 

hybrid: Energy Decomposition (eV):
Esiesta:      -4120.311843

hybrid: Atomic forces (eV/Ang):
     1   -1.105273    0.463024   -5.259183
     2    0.951215   -0.719832    5.256025
     3   -0.215140    0.302497    1.288428
     4    0.370529   -0.037636   -1.287662
-------------------------------------------
 Tot    0.001331    0.008052   -0.002392
-------------------------------------------
 Max    5.259183  free, atom      1
 Res    2.268230  sqrt( Sum f_i^2 / 3N )
-------------------------------------------
 Max    5.259183  cons, atom      1
 centrando sistema

hybrid:                 ==============================
                            Begin CG move =      7
                        ==============================
 nivel de optimizacion:            3
 doing SCF_in
 atoms QM, MM, totals           4           0           4
 doing SCF? T
 doing forces? T
Weights: 2752us.
Particion 0: 3130380
Particion 1: 2901530
Particion 2: 3010870
Relacion max / min = 1.078872
--> Thread OMP: 4
--> Thread CPU: 3
--> Thread GPU: 1
--> Correccion de cubos chicos: 250000
--> Puntos de separacion: 200
Timer functions: 936us.
MM point charges: 0
XC energy: 0
XC energy: 0
XC energy: 0
XC energy: 0
XC energy: 0
XC energy: 0
XC energy: 0
XC energy: 0
XC energy: 0
XC energy: 0
XC energy: 0
XC energy: 0
XC energy: 0
XC energy: 0
XC energy: 0
XC energy: 0
XC energy: 0
XC energy: 0
XC energy: 0
XC energy: 0
XC energy: 0
XC energy: 0
XC energy: 0
XC energy: 0
XC energy: 0
XC energy: 0
XC energy: 0
XC energy: 0
XC energy: 0
XC energy: 0
XC energy: 0
XC energy: 0
XC energy: 0
XC energy: 0
XC energy: 0
XC energy: 0
XC energy: 0
XC energy: 0
XC energy: 0
 CONVERGED AT          39 ITERATIONS
XC energy: -17.6399
 Lio  E(H)  -151.422335033243     
 Lio  E(eV)  -4120.41314182199     
XC energy: -17.6399
 

hybrid: Energy Decomposition (eV):
Esiesta:      -4120.413142

hybrid: Atomic forces (eV/Ang):
     1   -0.141283    0.474102   -1.622434
     2    0.481058    0.118771    1.618426
     3   -1.114468    0.254058    1.676674
     4    0.776207   -0.837589   -1.675098
-------------------------------------------
 Tot    0.001514    0.009341   -0.002433
-------------------------------------------
 Max    1.676674  free, atom      3
 Res    1.078953  sqrt( Sum f_i^2 / 3N )
-------------------------------------------
 Max    1.676674  cons, atom      3

cgvc: Finished line minimization    8.  Mean atomic displacement =    0.0576
 centrando sistema

hybrid:                 ==============================
                            Begin CG move =      8
                        ==============================
 nivel de optimizacion:            3
 doing SCF_in
 atoms QM, MM, totals           4           0           4
 doing SCF? T
 doing forces? T
Weights: 2749us.
Particion 0: 2948650
Particion 1: 3150920
Particion 2: 3011090
Relacion max / min = 1.068597
--> Thread OMP: 4
--> Thread CPU: 3
--> Thread GPU: 1
--> Correccion de cubos chicos: 250000
--> Puntos de separacion: 200
Timer functions: 1215us.
MM point charges: 0
XC energy: 0
XC energy: 0
XC energy: 0
XC energy: 0
XC energy: 0
XC energy: 0
XC energy: 0
XC energy: 0
XC energy: 0
XC energy: 0
XC energy: 0
XC energy: 0
XC energy: 0
XC energy: 0
XC energy: 0
XC energy: 0
XC energy: 0
XC energy: 0
XC energy: 0
XC energy: 0
XC energy: 0
XC energy: 0
XC energy: 0
XC energy: 0
XC energy: 0
XC energy: 0
XC energy: 0
XC energy: 0
XC energy: 0
XC energy: 0
XC energy: 0
XC energy: 0
XC energy: 0
XC energy: 0
XC energy: 0
XC energy: 0
XC energy: 0
XC energy: 0
XC energy: 0
XC energy: 0
XC energy: 0
XC energy: 0
XC energy: 0
 CONVERGED AT          43 ITERATIONS
XC energy: -17.6616
 Lio  E(H)  -151.425090635968     
 Lio  E(eV)  -4120.48812561934     
XC energy: -17.6616
 

hybrid: Energy Decomposition (eV):
Esiesta:      -4120.488126

hybrid: Atomic forces (eV/Ang):
     1   -2.571972    0.319750    1.191733
     2    1.561949   -2.064422   -1.192579
     3    1.758111    0.151949    0.389963
     4   -0.746852    1.598397   -0.391207
-------------------------------------------
 Tot    0.001237    0.005674   -0.002090
-------------------------------------------
 Max    2.571972  free, atom      1
 Res    1.378196  sqrt( Sum f_i^2 / 3N )
-------------------------------------------
 Max    2.571972  cons, atom      1
 centrando sistema

hybrid:                 ==============================
                            Begin CG move =      9
                        ==============================
 nivel de optimizacion:            3
 doing SCF_in
 atoms QM, MM, totals           4           0           4
 doing SCF? T
 doing forces? T
Weights: 5116us.
Particion 0: 2933030
Particion 1: 3152400
Particion 2: 3011110
Relacion max / min = 1.074793
--> Thread OMP: 4
--> Thread CPU: 3
--> Thread GPU: 1
--> Correccion de cubos chicos: 250000
--> Puntos de separacion: 200
Timer functions: 4142us.
MM point charges: 0
XC energy: 0
XC energy: 0
XC energy: 0
XC energy: 0
XC energy: 0
XC energy: 0
XC energy: 0
XC energy: 0
XC energy: 0
XC energy: 0
XC energy: 0
XC energy: 0
XC energy: 0
XC energy: 0
XC energy: 0
XC energy: 0
XC energy: 0
XC energy: 0
XC energy: 0
XC energy: 0
XC energy: 0
XC energy: 0
XC energy: 0
XC energy: 0
XC energy: 0
XC energy: 0
XC energy: 0
XC energy: 0
XC energy: 0
XC energy: 0
XC energy: 0
XC energy: 0
 CONVERGED AT          32 ITERATIONS
XC energy: -17.6558
 Lio  E(H)  -151.424856046472     
 Lio  E(eV)  -4120.48174211163     
XC energy: -17.6558
 

hybrid: Energy Decomposition (eV):
Esiesta:      -4120.481742

hybrid: Atomic forces (eV/Ang):
     1   -1.854559    0.363059    0.449364
     2    1.240989   -1.421159   -0.451076
     3    0.917594    0.179800    0.740464
     4   -0.302892    0.884621   -0.741064
-------------------------------------------
 Tot    0.001132    0.006321   -0.002313
-------------------------------------------
 Max    1.854559  free, atom      1
 Res    0.930162  sqrt( Sum f_i^2 / 3N )
-------------------------------------------
 Max    1.854559  cons, atom      1

cgvc: Finished line minimization    9.  Mean atomic displacement =    0.0422
 centrando sistema

hybrid:                 ==============================
                            Begin CG move =     10
                        ==============================
 nivel de optimizacion:            3
 doing SCF_in
 atoms QM, MM, totals           4           0           4
 doing SCF? T
 doing forces? T
Weights: 6882us.
Particion 0: 2728510
Particion 1: 2586440
Particion 2: 2505510
Relacion max / min = 1.089004
--> Thread OMP: 4
--> Thread CPU: 3
--> Thread GPU: 1
--> Correccion de cubos chicos: 250000
--> Puntos de separacion: 200
Timer functions: 1021us.
MM point charges: 0
XC energy: 0
XC energy: 0
XC energy: 0
XC energy: 0
XC energy: 0
XC energy: 0
XC energy: 0
XC energy: 0
XC energy: 0
XC energy: 0
XC energy: 0
XC energy: 0
XC energy: 0
XC energy: 0
XC energy: 0
XC energy: 0
XC energy: 0
XC energy: 0
XC energy: 0
XC energy: 0
XC energy: 0
XC energy: 0
XC energy: 0
XC energy: 0
XC energy: 0
XC energy: 0
XC energy: 0
XC energy: 0
XC energy: 0
XC energy: 0
XC energy: 0
XC energy: 0
XC energy: 0
XC energy: 0
XC energy: 0
XC energy: 0
XC energy: 0
XC energy: 0
XC energy: 0
XC energy: 0
 CONVERGED AT          40 ITERATIONS
XC energy: -17.6498
 Lio  E(H)  -151.426307013115     
 Lio  E(eV)  -4120.52122493971     
XC energy: -17.6498
 

hybrid: Energy Decomposition (eV):
Esiesta:      -4120.521225

hybrid: Atomic forces (eV/Ang):
     1   -0.191038   -0.016884    0.535647
     2    0.082143   -0.171586   -0.535749
     3   -0.008004    0.132886    0.275950
     4    0.118076    0.061619   -0.277058
-------------------------------------------
 Tot    0.001176    0.006034   -0.001209
-------------------------------------------
 Max    0.535749  free, atom      2
 Res    0.263832  sqrt( Sum f_i^2 / 3N )
-------------------------------------------
 Max    0.535749  cons, atom      2
 centrando sistema

hybrid:                 ==============================
                            Begin CG move =     11
                        ==============================
 nivel de optimizacion:            3
 doing SCF_in
 atoms QM, MM, totals           4           0           4
 doing SCF? T
 doing forces? T
Weights: 2892us.
Particion 0: 2963110
Particion 1: 2920050
Particion 2: 2762700
Relacion max / min = 1.072541
--> Thread OMP: 4
--> Thread CPU: 3
--> Thread GPU: 1
--> Correccion de cubos chicos: 250000
--> Puntos de separacion: 200
Timer functions: 1077us.
MM point charges: 0
XC energy: 0
XC energy: 0
XC energy: 0
XC energy: 0
XC energy: 0
XC energy: 0
XC energy: 0
XC energy: 0
XC energy: 0
XC energy: 0
XC energy: 0
XC energy: 0
XC energy: 0
XC energy: 0
XC energy: 0
XC energy: 0
XC energy: 0
XC energy: 0
XC energy: 0
XC energy: 0
XC energy: 0
XC energy: 0
XC energy: 0
XC energy: 0
XC energy: 0
XC energy: 0
XC energy: 0
XC energy: 0
XC energy: 0
XC energy: 0
XC energy: 0
XC energy: 0
XC energy: 0
XC energy: 0
XC energy: 0
XC energy: 0
XC energy: 0
XC energy: 0
XC energy: 0
XC energy: 0
XC energy: 0
XC energy: 0
XC energy: 0
XC energy: 0
 CONVERGED AT          44 ITERATIONS
XC energy: -17.6381
 
    ╔════════════════════════════════════════════╗
    ║        ENERGY CONTRIBUTIONS IN A.U.        ║
    ╠══════════════════╦═════════════════════════╣
    ║   ONE ELECTRON   ║      -281.7844010       ║
    ╠══════════════════╬═════════════════════════╣
    ║   COULOMB        ║       110.9597837       ║
    ╠══════════════════╬═════════════════════════╣
    ║   NUCLEAR        ║        37.0371432       ║
    ╠══════════════════╬═════════════════════════╣
    ║   EXC. - CORR.   ║       -17.6380707       ║
    ╠══════════════════╬═════════════════════════╣
    ║   TOTAL          ║      -151.4255448       ║
    ╚══════════════════╩═════════════════════════╝
 
 Lio  E(H)  -151.425544813156     
 Lio  E(eV)  -4120.50048441472     
XC energy: -17.6381
 

hybrid: Energy Decomposition (eV):
Esiesta:      -4120.500484

hybrid: Atomic forces (eV/Ang):
     1    2.430864   -0.679653    0.691403
     2   -1.798607    1.765303   -0.689015
     3   -1.473473    0.128342   -0.541993
     4    0.845728   -1.207225    0.541218
-------------------------------------------
 Tot    0.004513    0.006767    0.001613
-------------------------------------------
 Max    2.430864  free, atom      1
 Res    1.245726  sqrt( Sum f_i^2 / 3N )
-------------------------------------------
 Max    2.430864  cons, atom      1
 centrando sistema

hybrid:                 ==============================
                            Begin CG move =     12
                        ==============================
 nivel de optimizacion:            3
 doing SCF_in
 atoms QM, MM, totals           4           0           4
 doing SCF? T
 doing forces? T
Weights: 2900us.
Particion 0: 2717960
Particion 1: 2586140
Particion 2: 2505560
Relacion max / min = 1.084771
--> Thread OMP: 4
--> Thread CPU: 3
--> Thread GPU: 1
--> Correccion de cubos chicos: 250000
--> Puntos de separacion: 200
Timer functions: 607us.
MM point charges: 0
XC energy: 0
XC energy: 0
XC energy: 0
XC energy: 0
XC energy: 0
XC energy: 0
XC energy: 0
XC energy: 0
XC energy: 0
XC energy: 0
XC energy: 0
XC energy: 0
XC energy: 0
XC energy: 0
XC energy: 0
XC energy: 0
XC energy: 0
XC energy: 0
XC energy: 0
XC energy: 0
XC energy: 0
XC energy: 0
XC energy: 0
XC energy: 0
XC energy: 0
XC energy: 0
XC energy: 0
XC energy: 0
XC energy: 0
XC energy: 0
XC energy: 0
XC energy: 0
XC energy: 0
XC energy: 0
XC energy: 0
XC energy: 0
XC energy: 0
XC energy: 0
XC energy: 0
XC energy: 0
XC energy: 0
XC energy: 0
XC energy: 0
 CONVERGED AT          43 ITERATIONS
XC energy: -17.6483
 Lio  E(H)  -151.426433662858     
 Lio  E(eV)  -4120.52467125605     
XC energy: -17.6483
 

hybrid: Energy Decomposition (eV):
Esiesta:      -4120.524671

hybrid: Atomic forces (eV/Ang):
     1    0.201065   -0.111357    0.557241
     2   -0.195172    0.120481   -0.556957
     3   -0.226571    0.127074    0.162656
     4    0.222106   -0.130146   -0.163781
-------------------------------------------
 Tot    0.001428    0.006052   -0.000842
-------------------------------------------
 Max    0.557241  free, atom      1
 Res    0.275860  sqrt( Sum f_i^2 / 3N )
-------------------------------------------
 Max    0.557241  cons, atom      1

cgvc: Finished line minimization   10.  Mean atomic displacement =    0.0520
 centrando sistema

hybrid:                 ==============================
                            Begin CG move =     13
                        ==============================
 nivel de optimizacion:            3
 doing SCF_in
 atoms QM, MM, totals           4           0           4
 doing SCF? T
 doing forces? T
Weights: 3326us.
Particion 0: 2968940
Particion 1: 2922960
Particion 2: 2762700
Relacion max / min = 1.074652
--> Thread OMP: 4
--> Thread CPU: 3
--> Thread GPU: 1
--> Correccion de cubos chicos: 250000
--> Puntos de separacion: 200
Timer functions: 1054us.
MM point charges: 0
XC energy: 0
XC energy: 0
XC energy: 0
XC energy: 0
XC energy: 0
XC energy: 0
XC energy: 0
XC energy: 0
XC energy: 0
XC energy: 0
XC energy: 0
XC energy: 0
XC energy: 0
XC energy: 0
XC energy: 0
XC energy: 0
XC energy: 0
XC energy: 0
XC energy: 0
XC energy: 0
XC energy: 0
XC energy: 0
XC energy: 0
XC energy: 0
XC energy: 0
XC energy: 0
XC energy: 0
XC energy: 0
XC energy: 0
XC energy: 0
XC energy: 0
XC energy: 0
XC energy: 0
XC energy: 0
XC energy: 0
XC energy: 0
XC energy: 0
XC energy: 0
XC energy: 0
XC energy: 0
XC energy: 0
 CONVERGED AT          41 ITERATIONS
XC energy: -17.6864
 Lio  E(H)  -151.421363876487     
 Lio  E(eV)  -4120.38671529081     
XC energy: -17.6864
 

hybrid: Energy Decomposition (eV):
Esiesta:      -4120.386715

hybrid: Atomic forces (eV/Ang):
     1   -0.473279   -0.187381   -4.215310
     2    0.073581   -0.496466    4.217071
     3    0.517229    0.162564   -0.496816
     4   -0.116686    0.527436    0.492999
-------------------------------------------
 Tot    0.000845    0.006152   -0.002056
-------------------------------------------
 Max    4.217071  free, atom      2
 Res    1.759241  sqrt( Sum f_i^2 / 3N )
-------------------------------------------
 Max    4.217071  cons, atom      2
 centrando sistema

hybrid:                 ==============================
                            Begin CG move =     14
                        ==============================
 nivel de optimizacion:            3
 doing SCF_in
 atoms QM, MM, totals           4           0           4
 doing SCF? T
 doing forces? T
Weights: 7113us.
Particion 0: 2467800
Particion 1: 2333740
Particion 2: 2505960
Relacion max / min = 1.073796
--> Thread OMP: 4
--> Thread CPU: 3
--> Thread GPU: 1
--> Correccion de cubos chicos: 250000
--> Puntos de separacion: 200
Timer functions: 1493us.
MM point charges: 0
XC energy: 0
XC energy: 0
XC energy: 0
XC energy: 0
XC energy: 0
XC energy: 0
XC energy: 0
XC energy: 0
XC energy: 0
XC energy: 0
XC energy: 0
XC energy: 0
XC energy: 0
XC energy: 0
XC energy: 0
XC energy: 0
XC energy: 0
XC energy: 0
XC energy: 0
XC energy: 0
XC energy: 0
XC energy: 0
XC energy: 0
XC energy: 0
XC energy: 0
XC energy: 0
XC energy: 0
XC energy: 0
XC energy: 0
XC energy: 0
XC energy: 0
XC energy: 0
XC energy: 0
XC energy: 0
XC energy: 0
XC energy: 0
XC energy: 0
XC energy: 0
XC energy: 0
 CONVERGED AT          39 ITERATIONS
XC energy: -17.6537
 Lio  E(H)  -151.425964327925     
 Lio  E(eV)  -4120.51189999727     
XC energy: -17.6537
 

hybrid: Energy Decomposition (eV):
Esiesta:      -4120.511900

hybrid: Atomic forces (eV/Ang):
     1    0.101616   -0.120853   -0.079102
     2   -0.154054    0.030386    0.079596
     3   -0.116964    0.130567    0.072486
     4    0.170673   -0.034097   -0.073994
-------------------------------------------
 Tot    0.001272    0.006002   -0.001015
-------------------------------------------
 Max    0.170673  free, atom      4
 Res    0.105645  sqrt( Sum f_i^2 / 3N )
-------------------------------------------
 Max    0.170673  cons, atom      4

cgvc: Finished line minimization   11.  Mean atomic displacement =    0.0077
 centrando sistema

hybrid:                 ==============================
                            Begin CG move =     15
                        ==============================
 nivel de optimizacion:            3
 doing SCF_in
 atoms QM, MM, totals           4           0           4
 doing SCF? T
 doing forces? T
Weights: 6355us.
Particion 0: 2473080
Particion 1: 2333740
Particion 2: 2505960
Relacion max / min = 1.073796
--> Thread OMP: 4
--> Thread CPU: 3
--> Thread GPU: 1
--> Correccion de cubos chicos: 250000
--> Puntos de separacion: 200
Timer functions: 2684us.
MM point charges: 0
XC energy: 0
XC energy: 0
XC energy: 0
XC energy: 0
XC energy: 0
XC energy: 0
XC energy: 0
XC energy: 0
XC energy: 0
XC energy: 0
XC energy: 0
XC energy: 0
XC energy: 0
XC energy: 0
XC energy: 0
XC energy: 0
XC energy: 0
XC energy: 0
XC energy: 0
XC energy: 0
XC energy: 0
XC energy: 0
XC energy: 0
XC energy: 0
XC energy: 0
XC energy: 0
XC energy: 0
XC energy: 0
 CONVERGED AT          28 ITERATIONS
XC energy: -17.6575
 Lio  E(H)  -151.426078109129     
 Lio  E(eV)  -4120.51499614269     
XC energy: -17.6575
 

hybrid: Energy Decomposition (eV):
Esiesta:      -4120.514996

hybrid: Atomic forces (eV/Ang):
     1   -0.438266   -0.091987    0.233538
     2    0.140625   -0.423505   -0.232991
     3    0.390998    0.120352   -0.023398
     4   -0.092279    0.400855    0.021773
-------------------------------------------
 Tot    0.001077    0.005716   -0.001078
-------------------------------------------
 Max    0.438266  free, atom      1
 Res    0.265531  sqrt( Sum f_i^2 / 3N )
-------------------------------------------
 Max    0.438266  cons, atom      1
 centrando sistema

hybrid:                 ==============================
                            Begin CG move =     16
                        ==============================
 nivel de optimizacion:            3
 doing SCF_in
 atoms QM, MM, totals           4           0           4
 doing SCF? T
 doing forces? T
Weights: 3957us.
Particion 0: 2467800
Particion 1: 2333740
Particion 2: 2505960
Relacion max / min = 1.073796
--> Thread OMP: 4
--> Thread CPU: 3
--> Thread GPU: 1
--> Correccion de cubos chicos: 250000
--> Puntos de separacion: 200
Timer functions: 401us.
MM point charges: 0
XC energy: 0
XC energy: 0
XC energy: 0
XC energy: 0
XC energy: 0
XC energy: 0
XC energy: 0
XC energy: 0
XC energy: 0
XC energy: 0
XC energy: 0
XC energy: 0
XC energy: 0
XC energy: 0
XC energy: 0
XC energy: 0
XC energy: 0
XC energy: 0
XC energy: 0
XC energy: 0
XC energy: 0
XC energy: 0
XC energy: 0
XC energy: 0
 CONVERGED AT          24 ITERATIONS
XC energy: -17.6555
 Lio  E(H)  -151.426026874112     
 Lio  E(eV)  -4120.51360196635     
XC energy: -17.6555
 

hybrid: Energy Decomposition (eV):
Esiesta:      -4120.513602

hybrid: Atomic forces (eV/Ang):
     1   -0.149864   -0.105904    0.068308
     2   -0.015512   -0.180294   -0.067793
     3    0.118926    0.124722    0.027867
     4    0.047620    0.167336   -0.029435
-------------------------------------------
 Tot    0.001170    0.005860   -0.001052
-------------------------------------------
 Max    0.180294  free, atom      2
 Res    0.106964  sqrt( Sum f_i^2 / 3N )
-------------------------------------------
 Max    0.180294  cons, atom      2

cgvc: Finished line minimization   12.  Mean atomic displacement =    0.0036
 centrando sistema

hybrid:                 ==============================
                            Begin CG move =     17
                        ==============================
 nivel de optimizacion:            3
 doing SCF_in
 atoms QM, MM, totals           4           0           4
 doing SCF? T
 doing forces? T
Weights: 5650us.
Particion 0: 2473080
Particion 1: 2333740
Particion 2: 2505960
Relacion max / min = 1.073796
--> Thread OMP: 4
--> Thread CPU: 3
--> Thread GPU: 1
--> Correccion de cubos chicos: 250000
--> Puntos de separacion: 200
Timer functions: 2453us.
MM point charges: 0
XC energy: 0
XC energy: 0
XC energy: 0
XC energy: 0
XC energy: 0
XC energy: 0
XC energy: 0
XC energy: 0
XC energy: 0
XC energy: 0
XC energy: 0
XC energy: 0
XC energy: 0
XC energy: 0
XC energy: 0
XC energy: 0
XC energy: 0
 CONVERGED AT          17 ITERATIONS
XC energy: -17.6556
 Lio  E(H)  -151.426029475762     
 Lio  E(eV)  -4120.51367276087     
XC energy: -17.6556
 

hybrid: Energy Decomposition (eV):
Esiesta:      -4120.513673

hybrid: Atomic forces (eV/Ang):
     1   -0.148255   -0.107686    0.056009
     2   -0.017928   -0.179792   -0.055485
     3    0.123929    0.122770    0.018862
     4    0.043401    0.170630   -0.020441
-------------------------------------------
 Tot    0.001147    0.005922   -0.001055
-------------------------------------------
 Max    0.179792  free, atom      2
 Res    0.105925  sqrt( Sum f_i^2 / 3N )
-------------------------------------------
 Max    0.179792  cons, atom      2
 centrando sistema

hybrid:                 ==============================
                            Begin CG move =     18
                        ==============================
 nivel de optimizacion:            3
 doing SCF_in
 atoms QM, MM, totals           4           0           4
 doing SCF? T
 doing forces? T
Weights: 3094us.
Particion 0: 2472530
Particion 1: 2333100
Particion 2: 2505950
Relacion max / min = 1.074086
--> Thread OMP: 4
--> Thread CPU: 3
--> Thread GPU: 1
--> Correccion de cubos chicos: 250000
--> Puntos de separacion: 200
Timer functions: 399us.
MM point charges: 0
XC energy: 0
XC energy: 0
XC energy: 0
XC energy: 0
XC energy: 0
XC energy: 0
XC energy: 0
XC energy: 0
XC energy: 0
XC energy: 0
XC energy: 0
XC energy: 0
XC energy: 0
XC energy: 0
XC energy: 0
XC energy: 0
XC energy: 0
XC energy: 0
XC energy: 0
XC energy: 0
XC energy: 0
 CONVERGED AT          21 ITERATIONS
XC energy: -17.6559
 Lio  E(H)  -151.426028700690     
 Lio  E(eV)  -4120.51365167009     
XC energy: -17.6559
 

hybrid: Energy Decomposition (eV):
Esiesta:      -4120.513652

hybrid: Atomic forces (eV/Ang):
     1   -0.149991   -0.107828    0.038335
     2   -0.017341   -0.181503   -0.037790
     3    0.134628    0.117942    0.004170
     4    0.033823    0.177417   -0.005766
-------------------------------------------
 Tot    0.001119    0.006027   -0.001051
-------------------------------------------
 Max    0.181503  free, atom      2
 Res    0.106055  sqrt( Sum f_i^2 / 3N )
-------------------------------------------
 Max    0.181503  cons, atom      2
 centrando sistema

hybrid:                 ==============================
                            Begin CG move =     19
                        ==============================
 nivel de optimizacion:            3
 doing SCF_in
 atoms QM, MM, totals           4           0           4
 doing SCF? T
 doing forces? T
Weights: 3194us.
Particion 0: 2960030
Particion 1: 2931820
Particion 2: 2762690
Relacion max / min = 1.071430
--> Thread OMP: 4
--> Thread CPU: 3
--> Thread GPU: 1
--> Correccion de cubos chicos: 250000
--> Puntos de separacion: 200
Timer functions: 859us.
MM point charges: 0
XC energy: 0
XC energy: 0
XC energy: 0
XC energy: 0
XC energy: 0
XC energy: 0
XC energy: 0
XC energy: 0
XC energy: 0
XC energy: 0
XC energy: 0
XC energy: 0
XC energy: 0
XC energy: 0
XC energy: 0
XC energy: 0
XC energy: 0
XC energy: 0
XC energy: 0
XC energy: 0
XC energy: 0
XC energy: 0
XC energy: 0
XC energy: 0
XC energy: 0
 CONVERGED AT          25 ITERATIONS
XC energy: -17.6563
 Lio  E(H)  -151.426025227570     
 Lio  E(eV)  -4120.51355716164     
XC energy: -17.6563
 

hybrid: Energy Decomposition (eV):
Esiesta:      -4120.513557

hybrid: Atomic forces (eV/Ang):
     1   -0.146181   -0.108106    0.008370
     2   -0.019689   -0.178651   -0.007790
     3    0.145588    0.110036   -0.018037
     4    0.021381    0.182937    0.016439
-------------------------------------------
 Tot    0.001099    0.006216   -0.001018
-------------------------------------------
 Max    0.182937  free, atom      4
 Res    0.105401  sqrt( Sum f_i^2 / 3N )
-------------------------------------------
 Max    0.182937  cons, atom      4
 centrando sistema

hybrid:                 ==============================
                            Begin CG move =     20
                        ==============================
 nivel de optimizacion:            3
 doing SCF_in
 atoms QM, MM, totals           4           0           4
 doing SCF? T
 doing forces? T
Weights: 3005us.
Particion 0: 2981150
Particion 1: 2933520
Particion 2: 2762690
Relacion max / min = 1.079075
--> Thread OMP: 4
--> Thread CPU: 3
--> Thread GPU: 1
--> Correccion de cubos chicos: 250000
--> Puntos de separacion: 200
Timer functions: 1117us.
MM point charges: 0
XC energy: 0
XC energy: 0
XC energy: 0
XC energy: 0
XC energy: 0
XC energy: 0
XC energy: 0
XC energy: 0
XC energy: 0
XC energy: 0
XC energy: 0
XC energy: 0
XC energy: 0
XC energy: 0
XC energy: 0
XC energy: 0
XC energy: 0
XC energy: 0
XC energy: 0
XC energy: 0
XC energy: 0
XC energy: 0
XC energy: 0
XC energy: 0
XC energy: 0
XC energy: 0
XC energy: 0
XC energy: 0
XC energy: 0
 CONVERGED AT          29 ITERATIONS
XC energy: -17.6568
 Lio  E(H)  -151.426012915537     
 Lio  E(eV)  -4120.51322213402     
XC energy: -17.6568
 

hybrid: Energy Decomposition (eV):
Esiesta:      -4120.513222

hybrid: Atomic forces (eV/Ang):
     1   -0.123501   -0.108045   -0.043850
     2   -0.031180   -0.159714    0.044479
     3    0.147475    0.096380   -0.050312
     4    0.008348    0.177933    0.048781
-------------------------------------------
 Tot    0.001142    0.006554   -0.000902
-------------------------------------------
 Max    0.177933  free, atom      4
 Res    0.102057  sqrt( Sum f_i^2 / 3N )
-------------------------------------------
 Max    0.177933  cons, atom      4
 centrando sistema

hybrid:                 ==============================
                            Begin CG move =     21
                        ==============================
 nivel de optimizacion:            3
 doing SCF_in
 atoms QM, MM, totals           4           0           4
 doing SCF? T
 doing forces? T
Weights: 2851us.
Particion 0: 2508770
Particion 1: 2350260
Particion 2: 2508770
Relacion max / min = 1.067444
--> Thread OMP: 4
--> Thread CPU: 3
--> Thread GPU: 1
--> Correccion de cubos chicos: 250000
--> Puntos de separacion: 200
Timer functions: 548us.
MM point charges: 0
XC energy: 0
XC energy: 0
XC energy: 0
XC energy: 0
XC energy: 0
XC energy: 0
XC energy: 0
XC energy: 0
XC energy: 0
XC energy: 0
XC energy: 0
XC energy: 0
XC energy: 0
XC energy: 0
XC energy: 0
XC energy: 0
XC energy: 0
XC energy: 0
XC energy: 0
XC energy: 0
XC energy: 0
XC energy: 0
XC energy: 0
XC energy: 0
XC energy: 0
XC energy: 0
XC energy: 0
XC energy: 0
XC energy: 0
XC energy: 0
XC energy: 0
XC energy: 0
XC energy: 0
 CONVERGED AT          33 ITERATIONS
XC energy: -17.6571
 Lio  E(H)  -151.425973899808     
 Lio  E(eV)  -4120.51216046156     
XC energy: -17.6571
 

hybrid: Energy Decomposition (eV):
Esiesta:      -4120.512160

hybrid: Atomic forces (eV/Ang):
     1   -0.044993   -0.104704   -0.138089
     2   -0.067598   -0.091859    0.138786
     3    0.110523    0.070032   -0.094032
     4    0.003475    0.133663    0.092776
-------------------------------------------
 Tot    0.001407    0.007132   -0.000559
-------------------------------------------
 Max    0.138786  free, atom      2
 Res    0.098646  sqrt( Sum f_i^2 / 3N )
-------------------------------------------
 Max    0.138786  cons, atom      2
 centrando sistema

hybrid:                 ==============================
                            Begin CG move =     22
                        ==============================
 nivel de optimizacion:            3
 doing SCF_in
 atoms QM, MM, totals           4           0           4
 doing SCF? T
 doing forces? T
Weights: 4862us.
Particion 0: 2816350
Particion 1: 2920060
Particion 2: 3012860
Relacion max / min = 1.069775
--> Thread OMP: 4
--> Thread CPU: 3
--> Thread GPU: 1
--> Correccion de cubos chicos: 250000
--> Puntos de separacion: 200
Timer functions: 3882us.
MM point charges: 0
XC energy: 0
XC energy: 0
XC energy: 0
XC energy: 0
XC energy: 0
XC energy: 0
XC energy: 0
XC energy: 0
XC energy: 0
XC energy: 0
XC energy: 0
XC energy: 0
XC energy: 0
XC energy: 0
XC energy: 0
XC energy: 0
XC energy: 0
XC energy: 0
XC energy: 0
XC energy: 0
XC energy: 0
XC energy: 0
XC energy: 0
XC energy: 0
XC energy: 0
XC energy: 0
XC energy: 0
XC energy: 0
XC energy: 0
XC energy: 0
XC energy: 0
XC energy: 0
XC energy: 0
XC energy: 0
XC energy: 0
XC energy: 0
XC energy: 0
XC energy: 0
 CONVERGED AT          38 ITERATIONS
XC energy: -17.6567
 
    ╔════════════════════════════════════════════╗
    ║        ENERGY CONTRIBUTIONS IN A.U.        ║
    ╠══════════════════╦═════════════════════════╣
    ║   ONE ELECTRON   ║      -282.5813138       ║
    ╠══════════════════╬═════════════════════════╣
    ║   COULOMB        ║       111.3527658       ║
    ╠══════════════════╬═════════════════════════╣
    ║   NUCLEAR        ║        37.4593972       ║
    ╠══════════════════╬═════════════════════════╣
    ║   EXC. - CORR.   ║       -17.6566980       ║
    ╠══════════════════╬═════════════════════════╣
    ║   TOTAL          ║      -151.4258487       ║
    ╚══════════════════╩═════════════════════════╝
 
 Lio  E(H)  -151.425848748153     
 Lio  E(eV)  -4120.50875491030     
XC energy: -17.6567
 

hybrid: Energy Decomposition (eV):
Esiesta:      -4120.508755

hybrid: Atomic forces (eV/Ang):
     1    0.186002   -0.083183   -0.314423
     2   -0.164059    0.114468    0.315164
     3   -0.048794    0.008619   -0.145950
     4    0.029011   -0.032013    0.145386
-------------------------------------------
 Tot    0.002160    0.007890    0.000177
-------------------------------------------
 Max    0.315164  free, atom      2
 Res    0.164946  sqrt( Sum f_i^2 / 3N )
-------------------------------------------
 Max    0.315164  cons, atom      2
 centrando sistema

hybrid:                 ==============================
                            Begin CG move =     23
                        ==============================
 nivel de optimizacion:            3
 doing SCF_in
 atoms QM, MM, totals           4           0           4
 doing SCF? T
 doing forces? T
Weights: 6369us.
Particion 0: 2784670
Particion 1: 2920060
Particion 2: 3012860
Relacion max / min = 1.081945
--> Thread OMP: 4
--> Thread CPU: 3
--> Thread GPU: 1
--> Correccion de cubos chicos: 250000
--> Puntos de separacion: 200
Timer functions: 1010us.
MM point charges: 0
XC energy: 0
XC energy: 0
XC energy: 0
XC energy: 0
XC energy: 0
XC energy: 0
XC energy: 0
XC energy: 0
XC energy: 0
XC energy: 0
XC energy: 0
XC energy: 0
XC energy: 0
XC energy: 0
XC energy: 0
XC energy: 0
XC energy: 0
XC energy: 0
XC energy: 0
XC energy: 0
XC energy: 0
XC energy: 0
XC energy: 0
XC energy: 0
 CONVERGED AT          24 ITERATIONS
XC energy: -17.6569
 Lio  E(H)  -151.425882930723     
 Lio  E(eV)  -4120.50968506576     
XC energy: -17.6569
 

hybrid: Energy Decomposition (eV):
Esiesta:      -4120.509685

hybrid: Atomic forces (eV/Ang):
     1    0.128745   -0.087831   -0.276541
     2   -0.139620    0.063552    0.277285
     3   -0.007238    0.022096   -0.136724
     4    0.020107    0.009949    0.136005
-------------------------------------------
 Tot    0.001994    0.007766    0.000025
-------------------------------------------
 Max    0.277285  free, atom      2
 Res    0.141250  sqrt( Sum f_i^2 / 3N )
-------------------------------------------
 Max    0.277285  cons, atom      2

cgvc: Finished line minimization   13.  Mean atomic displacement =    0.0857
 centrando sistema

hybrid:                 ==============================
                            Begin CG move =     24
                        ==============================
 nivel de optimizacion:            3
 doing SCF_in
 atoms QM, MM, totals           4           0           4
 doing SCF? T
 doing forces? T
Weights: 6756us.
Particion 0: 2397380
Particion 1: 2602030
Particion 2: 2509990
Relacion max / min = 1.085364
--> Thread OMP: 4
--> Thread CPU: 3
--> Thread GPU: 1
--> Correccion de cubos chicos: 250000
--> Puntos de separacion: 200
Timer functions: 2851us.
MM point charges: 0
XC energy: 0
XC energy: 0
XC energy: 0
XC energy: 0
XC energy: 0
XC energy: 0
XC energy: 0
XC energy: 0
XC energy: 0
XC energy: 0
XC energy: 0
XC energy: 0
XC energy: 0
XC energy: 0
XC energy: 0
XC energy: 0
XC energy: 0
XC energy: 0
XC energy: 0
XC energy: 0
XC energy: 0
XC energy: 0
XC energy: 0
XC energy: 0
XC energy: 0
XC energy: 0
XC energy: 0
XC energy: 0
XC energy: 0
XC energy: 0
XC energy: 0
XC energy: 0
XC energy: 0
XC energy: 0
XC energy: 0
XC energy: 0
XC energy: 0
XC energy: 0
XC energy: 0
XC energy: 0
XC energy: 0
XC energy: 0
XC energy: 0
XC energy: 0
XC energy: 0
XC energy: 0
 CONVERGED AT          46 ITERATIONS
XC energy: -17.6405
 Lio  E(H)  -151.427364857224     
 Lio  E(eV)  -4120.55001035481     
XC energy: -17.6405
 

hybrid: Energy Decomposition (eV):
Esiesta:      -4120.550010

hybrid: Atomic forces (eV/Ang):
     1   -0.238789    0.073892    2.631798
     2    0.165931   -0.135855   -2.623204
     3    0.274821   -0.086343   -0.047094
     4   -0.198737    0.155752    0.039937
-------------------------------------------
 Tot    0.003226    0.007446    0.001437
-------------------------------------------
 Max    2.631798  free, atom      1
 Res    1.082689  sqrt( Sum f_i^2 / 3N )
-------------------------------------------
 Max    2.631798  cons, atom      1
 centrando sistema

hybrid:                 ==============================
                            Begin CG move =     25
                        ==============================
 nivel de optimizacion:            3
 doing SCF_in
 atoms QM, MM, totals           4           0           4
 doing SCF? T
 doing forces? T
Weights: 8020us.
Particion 0: 2816350
Particion 1: 2920060
Particion 2: 3012860
Relacion max / min = 1.069775
--> Thread OMP: 4
--> Thread CPU: 3
--> Thread GPU: 1
--> Correccion de cubos chicos: 250000
--> Puntos de separacion: 200
Timer functions: 2454us.
MM point charges: 0
XC energy: 0
XC energy: 0
XC energy: 0
XC energy: 0
XC energy: 0
XC energy: 0
XC energy: 0
XC energy: 0
XC energy: 0
XC energy: 0
XC energy: 0
XC energy: 0
XC energy: 0
XC energy: 0
XC energy: 0
XC energy: 0
XC energy: 0
XC energy: 0
XC energy: 0
XC energy: 0
XC energy: 0
XC energy: 0
XC energy: 0
XC energy: 0
XC energy: 0
XC energy: 0
XC energy: 0
XC energy: 0
XC energy: 0
XC energy: 0
XC energy: 0
XC energy: 0
XC energy: 0
XC energy: 0
XC energy: 0
XC energy: 0
XC energy: 0
XC energy: 0
XC energy: 0
XC energy: 0
XC energy: 0
XC energy: 0
XC energy: 0
XC energy: 0
XC energy: 0
 CONVERGED AT          45 ITERATIONS
XC energy: -17.6551
 Lio  E(H)  -151.426187671895     
 Lio  E(eV)  -4120.51797749850     
XC energy: -17.6551
 

hybrid: Energy Decomposition (eV):
Esiesta:      -4120.517977

hybrid: Atomic forces (eV/Ang):
     1    0.039137   -0.069894    0.143698
     2   -0.082238    0.000180   -0.141711
     3    0.074355    0.009286   -0.130370
     4   -0.029005    0.068225    0.128754
-------------------------------------------
 Tot    0.002248    0.007797    0.000370
-------------------------------------------
 Max    0.143698  free, atom      1
 Res    0.090644  sqrt( Sum f_i^2 / 3N )
-------------------------------------------
 Max    0.143698  cons, atom      1

cgvc: Finished line minimization   14.  Mean atomic displacement =    0.0113
 centrando sistema

hybrid:                 ==============================
                            Begin CG move =     26
                        ==============================
 nivel de optimizacion:            3
 doing SCF_in
 atoms QM, MM, totals           4           0           4
 doing SCF? T
 doing forces? T
Weights: 8677us.
Particion 0: 2816350
Particion 1: 2920060
Particion 2: 3012860
Relacion max / min = 1.069775
--> Thread OMP: 4
--> Thread CPU: 3
--> Thread GPU: 1
--> Correccion de cubos chicos: 250000
--> Puntos de separacion: 200
Timer functions: 1466us.
MM point charges: 0
XC energy: 0
XC energy: 0
XC energy: 0
XC energy: 0
XC energy: 0
XC energy: 0
XC energy: 0
XC energy: 0
XC energy: 0
XC energy: 0
XC energy: 0
XC energy: 0
XC energy: 0
XC energy: 0
XC energy: 0
XC energy: 0
XC energy: 0
XC energy: 0
XC energy: 0
XC energy: 0
XC energy: 0
XC energy: 0
XC energy: 0
XC energy: 0
XC energy: 0
XC energy: 0
XC energy: 0
XC energy: 0
XC energy: 0
XC energy: 0
 CONVERGED AT          30 ITERATIONS
XC energy: -17.6541
 Lio  E(H)  -151.426139709531     
 Lio  E(eV)  -4120.51667237563     
XC energy: -17.6541
 

hybrid: Energy Decomposition (eV):
Esiesta:      -4120.516672

hybrid: Atomic forces (eV/Ang):
     1    0.066483   -0.016202    0.072044
     2   -0.049311    0.051263   -0.071088
     3   -0.011372   -0.010775   -0.047924
     4   -0.003317   -0.016239    0.047259
-------------------------------------------
 Tot    0.002483    0.008047    0.000291
-------------------------------------------
 Max    0.072044  free, atom      1
 Res    0.045676  sqrt( Sum f_i^2 / 3N )
-------------------------------------------
 Max    0.072044  cons, atom      1
 centrando sistema
  Econtribution          1.408616        -4120.516672            0.000000            0.000000            0.000000            0.000000        -4120.516672
 
constr opt: Optimized Reaction Coordinate
Reaction Coordinate (Ang) :    1.40862
Total Energy (eV) :  -4120.51667
 
*******************************
  Constrained Step :     2
*******************************

hybrid:                 ==============================
                            Begin CG move =      0
                        ==============================
 nivel de optimizacion:            3
 defino cuts 
 doing SCF_in
 atoms QM, MM, totals           4           0           4
 doing SCF? T
 doing forces? T
Weights: 7573us.
Particion 0: 2816350
Particion 1: 2920060
Particion 2: 3012860
Relacion max / min = 1.069775
--> Thread OMP: 4
--> Thread CPU: 3
--> Thread GPU: 1
--> Correccion de cubos chicos: 250000
--> Puntos de separacion: 200
Timer functions: 1131us.
MM point charges: 0
XC energy: 0
XC energy: 0
 CONVERGED AT           2 ITERATIONS
XC energy: -17.6541
 Lio  E(H)  -151.426140177150     
 Lio  E(eV)  -4120.51668510019     
XC energy: -17.6541

constr opt: variable constraint
icosntr  :   1
targeted :   1.238
actual   :   1.409
 

hybrid: Energy Decomposition (eV):
Esiesta:      -4120.516685

hybrid: Atomic forces (eV/Ang):
     1    0.037343    0.000897   -0.593827
     2   -0.019368    0.035562    0.594784
     3   -0.011771   -0.011476   -0.047725
     4   -0.003721   -0.016936    0.047059
-------------------------------------------
 Tot    0.002483    0.008046    0.000290
-------------------------------------------
 Max    0.594784  free, atom      2
 Res    0.244011  sqrt( Sum f_i^2 / 3N )
-------------------------------------------
 Max    0.594784  cons, atom      2

cgvc: Finished line minimization   15.  Mean atomic displacement =    0.1000
 centrando sistema

hybrid:                 ==============================
                            Begin CG move =      1
                        ==============================
 nivel de optimizacion:            3
 doing SCF_in
 atoms QM, MM, totals           4           0           4
 doing SCF? T
 doing forces? T
Weights: 81762us.
Particion 0: 2385310
Particion 1: 2602030
Particion 2: 2508430
Relacion max / min = 1.090856
--> Thread OMP: 4
--> Thread CPU: 3
--> Thread GPU: 1
--> Correccion de cubos chicos: 250000
--> Puntos de separacion: 200
Timer functions: 1701us.
MM point charges: 0
XC energy: 0
XC energy: 0
XC energy: 0
XC energy: 0
XC energy: 0
XC energy: 0
XC energy: 0
XC energy: 0
XC energy: 0
XC energy: 0
XC energy: 0
XC energy: 0
XC energy: 0
XC energy: 0
XC energy: 0
XC energy: 0
XC energy: 0
XC energy: 0
XC energy: 0
XC energy: 0
XC energy: 0
XC energy: 0
XC energy: 0
XC energy: 0
XC energy: 0
XC energy: 0
XC energy: 0
XC energy: 0
XC energy: 0
XC energy: 0
XC energy: 0
XC energy: 0
XC energy: 0
XC energy: 0
XC energy: 0
XC energy: 0
XC energy: 0
XC energy: 0
XC energy: 0
XC energy: 0
XC energy: 0
XC energy: 0
XC energy: 0
XC energy: 0
XC energy: 0
XC energy: 0
XC energy: 0
 CONVERGED AT          47 ITERATIONS
XC energy: -17.6075
 Lio  E(H)  -151.424258093234     
 Lio  E(eV)  -4120.46547096920     
XC energy: -17.6075
 

hybrid: Energy Decomposition (eV):
Esiesta:      -4120.465471

hybrid: Atomic forces (eV/Ang):
     1   -1.963175   -0.193781    9.370894
     2    0.827600   -1.855934   -9.377083
     3    2.113697    0.121198   -0.192310
     4   -0.974070    1.934749    0.201316
-------------------------------------------
 Tot    0.004052    0.006233    0.002817
-------------------------------------------
 Max    9.377083  free, atom      2
 Res    4.010573  sqrt( Sum f_i^2 / 3N )
-------------------------------------------
 Max    9.377083  cons, atom      2
 centrando sistema

hybrid:                 ==============================
                            Begin CG move =      2
                        ==============================
 nivel de optimizacion:            3
 doing SCF_in
 atoms QM, MM, totals           4           0           4
 doing SCF? T
 doing forces? T
Weights: 3370us.
Particion 0: 2816350
Particion 1: 2920060
Particion 2: 3012860
Relacion max / min = 1.069775
--> Thread OMP: 4
--> Thread CPU: 3
--> Thread GPU: 1
--> Correccion de cubos chicos: 250000
--> Puntos de separacion: 200
Timer functions: 913us.
MM point charges: 0
XC energy: 0
XC energy: 0
XC energy: 0
XC energy: 0
XC energy: 0
XC energy: 0
XC energy: 0
XC energy: 0
XC energy: 0
XC energy: 0
XC energy: 0
XC energy: 0
XC energy: 0
XC energy: 0
XC energy: 0
XC energy: 0
XC energy: 0
XC energy: 0
XC energy: 0
XC energy: 0
XC energy: 0
XC energy: 0
XC energy: 0
XC energy: 0
XC energy: 0
XC energy: 0
XC energy: 0
XC energy: 0
XC energy: 0
XC energy: 0
XC energy: 0
XC energy: 0
XC energy: 0
XC energy: 0
XC energy: 0
XC energy: 0
XC energy: 0
XC energy: 0
XC energy: 0
XC energy: 0
XC energy: 0
XC energy: 0
XC energy: 0
XC energy: 0
XC energy: 0
XC energy: 0
XC energy: 0
 CONVERGED AT          47 ITERATIONS
XC energy: -17.6508
 Lio  E(H)  -151.426665011965     
 Lio  E(eV)  -4120.53096658825     
XC energy: -17.6508
 

hybrid: Energy Decomposition (eV):
Esiesta:      -4120.530967

hybrid: Atomic forces (eV/Ang):
     1   -0.077110   -0.008897    0.177126
     2    0.029942   -0.072063   -0.176551
     3    0.111583   -0.006012   -0.054553
     4   -0.061843    0.094830    0.054629
-------------------------------------------
 Tot    0.002572    0.007858    0.000650
-------------------------------------------
 Max    0.177126  free, atom      1
 Res    0.093952  sqrt( Sum f_i^2 / 3N )
-------------------------------------------
 Max    0.177126  cons, atom      1

cgvc: Finished line minimization    1.  Mean atomic displacement =    0.0059
 centrando sistema

hybrid:                 ==============================
                            Begin CG move =      3
                        ==============================
 nivel de optimizacion:            3
 doing SCF_in
 atoms QM, MM, totals           4           0           4
 doing SCF? T
 doing forces? T
Weights: 49016us.
Particion 0: 2828010
Particion 1: 2922960
Particion 2: 3012860
Relacion max / min = 1.065364
--> Thread OMP: 4
--> Thread CPU: 3
--> Thread GPU: 1
--> Correccion de cubos chicos: 250000
--> Puntos de separacion: 200
Timer functions: 3112us.
MM point charges: 0
XC energy: 0
XC energy: 0
XC energy: 0
XC energy: 0
XC energy: 0
XC energy: 0
XC energy: 0
XC energy: 0
XC energy: 0
XC energy: 0
XC energy: 0
XC energy: 0
XC energy: 0
XC energy: 0
XC energy: 0
XC energy: 0
XC energy: 0
XC energy: 0
XC energy: 0
XC energy: 0
XC energy: 0
XC energy: 0
XC energy: 0
XC energy: 0
XC energy: 0
XC energy: 0
 CONVERGED AT          26 ITERATIONS
XC energy: -17.6448
 Lio  E(H)  -151.426905160776     
 Lio  E(eV)  -4120.53750137267     
XC energy: -17.6448
 

hybrid: Energy Decomposition (eV):
Esiesta:      -4120.537501

hybrid: Atomic forces (eV/Ang):
     1    0.298823    0.019520    0.472130
     2   -0.133710    0.267127   -0.472477
     3   -0.245131   -0.045139    0.031752
     4    0.082799   -0.233283   -0.030707
-------------------------------------------
 Tot    0.002780    0.008225    0.000698
-------------------------------------------
 Max    0.472477  free, atom      2
 Res    0.250068  sqrt( Sum f_i^2 / 3N )
-------------------------------------------
 Max    0.472477  cons, atom      2
 centrando sistema

hybrid:                 ==============================
                            Begin CG move =      4
                        ==============================
 nivel de optimizacion:            3
 doing SCF_in
 atoms QM, MM, totals           4           0           4
 doing SCF? T
 doing forces? T
Weights: 2725us.
Particion 0: 2817450
Particion 1: 2922960
Particion 2: 3012860
Relacion max / min = 1.069357
--> Thread OMP: 4
--> Thread CPU: 3
--> Thread GPU: 1
--> Correccion de cubos chicos: 250000
--> Puntos de separacion: 200
Timer functions: 892us.
MM point charges: 0
XC energy: 0
XC energy: 0
XC energy: 0
XC energy: 0
XC energy: 0
XC energy: 0
XC energy: 0
XC energy: 0
XC energy: 0
XC energy: 0
XC energy: 0
XC energy: 0
XC energy: 0
XC energy: 0
XC energy: 0
XC energy: 0
XC energy: 0
XC energy: 0
XC energy: 0
XC energy: 0
XC energy: 0
XC energy: 0
XC energy: 0
XC energy: 0
XC energy: 0
XC energy: 0
 CONVERGED AT          26 ITERATIONS
XC energy: -17.6504
 Lio  E(H)  -151.426683017612     
 Lio  E(eV)  -4120.53145654704     
XC energy: -17.6504
 

hybrid: Energy Decomposition (eV):
Esiesta:      -4120.531457

hybrid: Atomic forces (eV/Ang):
     1   -0.050544   -0.007311    0.192147
     2    0.018016   -0.048287   -0.191629
     3    0.086885   -0.008662   -0.048980
     4   -0.051774    0.072137    0.049115
-------------------------------------------
 Tot    0.002583    0.007877    0.000653
-------------------------------------------
 Max    0.192147  free, atom      1
 Res    0.090933  sqrt( Sum f_i^2 / 3N )
-------------------------------------------
 Max    0.192147  cons, atom      1

cgvc: Finished line minimization    2.  Mean atomic displacement =    0.0003
 centrando sistema

hybrid:                 ==============================
                            Begin CG move =      5
                        ==============================
 nivel de optimizacion:            3
 doing SCF_in
 atoms QM, MM, totals           4           0           4
 doing SCF? T
 doing forces? T
Weights: 177592us.
Particion 0: 2816350
Particion 1: 2920060
Particion 2: 3012860
Relacion max / min = 1.069775
--> Thread OMP: 4
--> Thread CPU: 3
--> Thread GPU: 1
--> Correccion de cubos chicos: 250000
--> Puntos de separacion: 200
Timer functions: 1186us.
MM point charges: 0
XC energy: 0
XC energy: 0
XC energy: 0
XC energy: 0
XC energy: 0
XC energy: 0
XC energy: 0
XC energy: 0
XC energy: 0
XC energy: 0
XC energy: 0
 CONVERGED AT          11 ITERATIONS
XC energy: -17.6504
 Lio  E(H)  -151.426660538766     
 Lio  E(eV)  -4120.53084486625     
XC energy: -17.6504
 

hybrid: Energy Decomposition (eV):
Esiesta:      -4120.530845

hybrid: Atomic forces (eV/Ang):
     1   -0.036880   -0.005624    0.154171
     2    0.012596   -0.035403   -0.153656
     3    0.072174   -0.009780   -0.045990
     4   -0.045309    0.058706    0.046105
-------------------------------------------
 Tot    0.002582    0.007900    0.000630
-------------------------------------------
 Max    0.154171  free, atom      1
 Res    0.073726  sqrt( Sum f_i^2 / 3N )
-------------------------------------------
 Max    0.154171  cons, atom      1
 centrando sistema

hybrid:                 ==============================
                            Begin CG move =      6
                        ==============================
 nivel de optimizacion:            3
 doing SCF_in
 atoms QM, MM, totals           4           0           4
 doing SCF? T
 doing forces? T
Weights: 6145us.
Particion 0: 2816350
Particion 1: 2920060
Particion 2: 3012860
Relacion max / min = 1.069775
--> Thread OMP: 4
--> Thread CPU: 3
--> Thread GPU: 1
--> Correccion de cubos chicos: 250000
--> Puntos de separacion: 200
Timer functions: 2683us.
MM point charges: 0
XC energy: 0
XC energy: 0
XC energy: 0
XC energy: 0
XC energy: 0
XC energy: 0
XC energy: 0
XC energy: 0
XC energy: 0
XC energy: 0
XC energy: 0
XC energy: 0
XC energy: 0
XC energy: 0
 CONVERGED AT          14 ITERATIONS
XC energy: -17.6505
 
    ╔════════════════════════════════════════════╗
    ║        ENERGY CONTRIBUTIONS IN A.U.        ║
    ╠══════════════════╦═════════════════════════╣
    ║   ONE ELECTRON   ║      -282.1415162       ║
    ╠══════════════════╬═════════════════════════╣
    ║   COULOMB        ║       111.1315481       ║
    ╠══════════════════╬═════════════════════════╣
    ║   NUCLEAR        ║        37.2338446       ║
    ╠══════════════════╬═════════════════════════╣
    ║   EXC. - CORR.   ║       -17.6504994       ║
    ╠══════════════════╬═════════════════════════╣
    ║   TOTAL          ║      -151.4266229       ║
    ╚══════════════════╩═════════════════════════╝
 
 Lio  E(H)  -151.426622910629     
 Lio  E(eV)  -4120.52982095211     
XC energy: -17.6505
 

hybrid: Energy Decomposition (eV):
Esiesta:      -4120.529821

hybrid: Atomic forces (eV/Ang):
     1   -0.007965   -0.003023    0.091090
     2    0.000318   -0.008709   -0.090586
     3    0.042759   -0.012159   -0.040602
     4   -0.032530    0.031827    0.040693
-------------------------------------------
 Tot    0.002582    0.007935    0.000595
-------------------------------------------
 Max    0.091090  free, atom      1
 Res    0.044725  sqrt( Sum f_i^2 / 3N )
-------------------------------------------
 Max    0.091090  cons, atom      1
 centrando sistema

hybrid:                 ==============================
                            Begin CG move =      7
                        ==============================
 nivel de optimizacion:            3
 doing SCF_in
 atoms QM, MM, totals           4           0           4
 doing SCF? T
 doing forces? T
Weights: 4682us.
Particion 0: 2816350
Particion 1: 2920060
Particion 2: 3012860
Relacion max / min = 1.069775
--> Thread OMP: 4
--> Thread CPU: 3
--> Thread GPU: 1
--> Correccion de cubos chicos: 250000
--> Puntos de separacion: 200
Timer functions: 1130us.
MM point charges: 0
XC energy: 0
XC energy: 0
XC energy: 0
XC energy: 0
XC energy: 0
XC energy: 0
XC energy: 0
XC energy: 0
XC energy: 0
XC energy: 0
XC energy: 0
XC energy: 0
XC energy: 0
XC energy: 0
XC energy: 0
XC energy: 0
XC energy: 0
 CONVERGED AT          17 ITERATIONS
XC energy: -17.6506
 Lio  E(H)  -151.426561483946     
 Lio  E(eV)  -4120.52814944630     
XC energy: -17.6506
 

hybrid: Energy Decomposition (eV):
Esiesta:      -4120.528149

hybrid: Atomic forces (eV/Ang):
     1    0.037864    0.001112   -0.010154
     2   -0.019131    0.033610    0.010640
     3   -0.003933   -0.015905   -0.031995
     4   -0.012221   -0.010824    0.032046
-------------------------------------------
 Tot    0.002580    0.007993    0.000537
-------------------------------------------
 Max    0.037864  free, atom      1
 Res    0.021857  sqrt( Sum f_i^2 / 3N )
-------------------------------------------
 Max    0.037864  cons, atom      1
 centrando sistema
  Econtribution          1.415488        -4120.528149            0.000000            0.000000            0.000000            0.000000        -4120.528149
 
constr opt: Optimized Reaction Coordinate
Reaction Coordinate (Ang) :    1.41549
Total Energy (eV) :  -4120.52815
 
*******************************
  Constrained Step :     3
*******************************

hybrid:                 ==============================
                            Begin CG move =      0
                        ==============================
 nivel de optimizacion:            3
 defino cuts 
 doing SCF_in
 atoms QM, MM, totals           4           0           4
 doing SCF? T
 doing forces? T
Weights: 9916us.
Particion 0: 2816350
Particion 1: 2920060
Particion 2: 3012860
Relacion max / min = 1.069775
--> Thread OMP: 4
--> Thread CPU: 3
--> Thread GPU: 1
--> Correccion de cubos chicos: 250000
--> Puntos de separacion: 200
Timer functions: 2061us.
MM point charges: 0
XC energy: 0
XC energy: 0
 CONVERGED AT           2 ITERATIONS
XC energy: -17.6506
 Lio  E(H)  -151.426562330965     
 Lio  E(eV)  -4120.52817249488     
XC energy: -17.6506

constr opt: variable constraint
icosntr  :   1
targeted :   1.277
actual   :   1.415
 

hybrid: Energy Decomposition (eV):
Esiesta:      -4120.528172

hybrid: Atomic forces (eV/Ang):
     1    0.010588    0.017194   -0.679021
     2    0.009013    0.019044    0.679505
     3   -0.005417   -0.016054   -0.031614
     4   -0.011604   -0.012190    0.031666
-------------------------------------------
 Tot    0.002581    0.007994    0.000537
-------------------------------------------
 Max    0.679505  free, atom      2
 Res    0.277822  sqrt( Sum f_i^2 / 3N )
-------------------------------------------
 Max    0.679505  cons, atom      2

cgvc: Finished line minimization    3.  Mean atomic displacement =    0.1000
 centrando sistema

hybrid:                 ==============================
                            Begin CG move =      1
                        ==============================
 nivel de optimizacion:            3
 doing SCF_in
 atoms QM, MM, totals           4           0           4
 doing SCF? T
 doing forces? T
Weights: 5612us.
Particion 0: 2395870
Particion 1: 2602030
Particion 2: 2512750
Relacion max / min = 1.086048
--> Thread OMP: 4
--> Thread CPU: 3
--> Thread GPU: 1
--> Correccion de cubos chicos: 250000
--> Puntos de separacion: 200
Timer functions: 1104us.
MM point charges: 0
XC energy: 0
XC energy: 0
XC energy: 0
XC energy: 0
XC energy: 0
XC energy: 0
XC energy: 0
XC energy: 0
XC energy: 0
XC energy: 0
XC energy: 0
XC energy: 0
XC energy: 0
XC energy: 0
XC energy: 0
XC energy: 0
XC energy: 0
XC energy: 0
XC energy: 0
XC energy: 0
XC energy: 0
XC energy: 0
XC energy: 0
XC energy: 0
XC energy: 0
XC energy: 0
XC energy: 0
XC energy: 0
XC energy: 0
XC energy: 0
XC energy: 0
XC energy: 0
XC energy: 0
XC energy: 0
XC energy: 0
XC energy: 0
XC energy: 0
XC energy: 0
XC energy: 0
XC energy: 0
XC energy: 0
XC energy: 0
XC energy: 0
XC energy: 0
XC energy: 0
XC energy: 0
XC energy: 0
 CONVERGED AT          47 ITERATIONS
XC energy: -17.6015
 Lio  E(H)  -151.424072391366     
 Lio  E(eV)  -4120.46041776209     
XC energy: -17.6015
 

hybrid: Energy Decomposition (eV):
Esiesta:      -4120.460418

hybrid: Atomic forces (eV/Ang):
     1   -1.473235   -0.201150    8.984412
     2    0.557881   -1.390418   -8.983342
     3    1.720753    0.071232   -0.194126
     4   -0.801351    1.526651    0.195897
-------------------------------------------
 Tot    0.004048    0.006315    0.002841
-------------------------------------------
 Max    8.984412  free, atom      1
 Res    3.784733  sqrt( Sum f_i^2 / 3N )
-------------------------------------------
 Max    8.984412  cons, atom      1
 centrando sistema

hybrid:                 ==============================
                            Begin CG move =      2
                        ==============================
 nivel de optimizacion:            3
 doing SCF_in
 atoms QM, MM, totals           4           0           4
 doing SCF? T
 doing forces? T
Weights: 7108us.
Particion 0: 2828010
Particion 1: 2922960
Particion 2: 3012860
Relacion max / min = 1.065364
--> Thread OMP: 4
--> Thread CPU: 3
--> Thread GPU: 1
--> Correccion de cubos chicos: 250000
--> Puntos de separacion: 200
Timer functions: 2513us.
MM point charges: 0
XC energy: 0
XC energy: 0
XC energy: 0
XC energy: 0
XC energy: 0
XC energy: 0
XC energy: 0
XC energy: 0
XC energy: 0
XC energy: 0
XC energy: 0
XC energy: 0
XC energy: 0
XC energy: 0
XC energy: 0
XC energy: 0
XC energy: 0
XC energy: 0
XC energy: 0
XC energy: 0
XC energy: 0
XC energy: 0
XC energy: 0
XC energy: 0
XC energy: 0
XC energy: 0
XC energy: 0
XC energy: 0
XC energy: 0
XC energy: 0
XC energy: 0
XC energy: 0
XC energy: 0
XC energy: 0
XC energy: 0
XC energy: 0
XC energy: 0
XC energy: 0
XC energy: 0
XC energy: 0
XC energy: 0
XC energy: 0
XC energy: 0
XC energy: 0
XC energy: 0
XC energy: 0
XC energy: 0
 CONVERGED AT          47 ITERATIONS
XC energy: -17.6465
 Lio  E(H)  -151.427092740416     
 Lio  E(eV)  -4120.54260567656     
XC energy: -17.6465
 

hybrid: Energy Decomposition (eV):
Esiesta:      -4120.542606

hybrid: Atomic forces (eV/Ang):
     1   -0.093965    0.003533    0.204780
     2    0.048979   -0.079843   -0.204128
     3    0.117195   -0.011917   -0.042411
     4   -0.069506    0.096020    0.042726
-------------------------------------------
 Tot    0.002704    0.007794    0.000968
-------------------------------------------
 Max    0.204780  free, atom      1
 Res    0.105187  sqrt( Sum f_i^2 / 3N )
-------------------------------------------
 Max    0.204780  cons, atom      1

cgvc: Finished line minimization    1.  Mean atomic displacement =    0.0070
 centrando sistema

hybrid:                 ==============================
                            Begin CG move =      3
                        ==============================
 nivel de optimizacion:            3
 doing SCF_in
 atoms QM, MM, totals           4           0           4
 doing SCF? T
 doing forces? T
Weights: 2709us.
Particion 0: 2828010
Particion 1: 2922960
Particion 2: 3012860
Relacion max / min = 1.065364
--> Thread OMP: 4
--> Thread CPU: 3
--> Thread GPU: 1
--> Correccion de cubos chicos: 250000
--> Puntos de separacion: 200
Timer functions: 1106us.
MM point charges: 0
XC energy: 0
XC energy: 0
XC energy: 0
XC energy: 0
XC energy: 0
XC energy: 0
XC energy: 0
XC energy: 0
XC energy: 0
XC energy: 0
XC energy: 0
XC energy: 0
XC energy: 0
XC energy: 0
XC energy: 0
XC energy: 0
XC energy: 0
XC energy: 0
XC energy: 0
XC energy: 0
XC energy: 0
XC energy: 0
XC energy: 0
XC energy: 0
XC energy: 0
XC energy: 0
XC energy: 0
XC energy: 0
 CONVERGED AT          28 ITERATIONS
XC energy: -17.6393
 Lio  E(H)  -151.427309963614     
 Lio  E(eV)  -4120.54851662305     
XC energy: -17.6393
 

hybrid: Energy Decomposition (eV):
Esiesta:      -4120.548517

hybrid: Atomic forces (eV/Ang):
     1    0.412491    0.027795    0.532036
     2   -0.184058    0.370853   -0.532013
     3   -0.344005   -0.061749    0.041950
     4    0.118542   -0.328644   -0.040898
-------------------------------------------
 Tot    0.002970    0.008255    0.001075
-------------------------------------------
 Max    0.532036  free, atom      1
 Res    0.310386  sqrt( Sum f_i^2 / 3N )
-------------------------------------------
 Max    0.532036  cons, atom      1
 centrando sistema

hybrid:                 ==============================
                            Begin CG move =      4
                        ==============================
 nivel de optimizacion:            3
 doing SCF_in
 atoms QM, MM, totals           4           0           4
 doing SCF? T
 doing forces? T
Weights: 7149us.
Particion 0: 2828010
Particion 1: 2922960
Particion 2: 3012860
Relacion max / min = 1.065364
--> Thread OMP: 4
--> Thread CPU: 3
--> Thread GPU: 1
--> Correccion de cubos chicos: 250000
--> Puntos de separacion: 200
Timer functions: 2065us.
MM point charges: 0
XC energy: 0
XC energy: 0
XC energy: 0
XC energy: 0
XC energy: 0
XC energy: 0
XC energy: 0
XC energy: 0
XC energy: 0
XC energy: 0
XC energy: 0
XC energy: 0
XC energy: 0
XC energy: 0
XC energy: 0
XC energy: 0
XC energy: 0
XC energy: 0
XC energy: 0
XC energy: 0
XC energy: 0
XC energy: 0
XC energy: 0
XC energy: 0
XC energy: 0
XC energy: 0
XC energy: 0
XC energy: 0
 CONVERGED AT          28 ITERATIONS
XC energy: -17.6462
 Lio  E(H)  -151.427105398632     
 Lio  E(eV)  -4120.54295012429     
XC energy: -17.6462
 

hybrid: Energy Decomposition (eV):
Esiesta:      -4120.542950

hybrid: Atomic forces (eV/Ang):
     1   -0.070166    0.004361    0.215004
     2    0.037764   -0.058816   -0.214380
     3    0.095867   -0.014154   -0.038633
     4   -0.060753    0.076419    0.038980
-------------------------------------------
 Tot    0.002712    0.007810    0.000972
-------------------------------------------
 Max    0.215004  free, atom      1
 Res    0.101631  sqrt( Sum f_i^2 / 3N )
-------------------------------------------
 Max    0.215004  cons, atom      1

cgvc: Finished line minimization    2.  Mean atomic displacement =    0.0003
 centrando sistema

hybrid:                 ==============================
                            Begin CG move =      5
                        ==============================
 nivel de optimizacion:            3
 doing SCF_in
 atoms QM, MM, totals           4           0           4
 doing SCF? T
 doing forces? T
Weights: 7237us.
Particion 0: 2828010
Particion 1: 2922960
Particion 2: 3012860
Relacion max / min = 1.065364
--> Thread OMP: 4
--> Thread CPU: 3
--> Thread GPU: 1
--> Correccion de cubos chicos: 250000
--> Puntos de separacion: 200
Timer functions: 3768us.
MM point charges: 0
XC energy: 0
XC energy: 0
XC energy: 0
XC energy: 0
XC energy: 0
XC energy: 0
XC energy: 0
XC energy: 0
XC energy: 0
XC energy: 0
 CONVERGED AT          10 ITERATIONS
XC energy: -17.6463
 Lio  E(H)  -151.427091451691     
 Lio  E(eV)  -4120.54257060855     
XC energy: -17.6463
 

hybrid: Energy Decomposition (eV):
Esiesta:      -4120.542571

hybrid: Atomic forces (eV/Ang):
     1   -0.060359    0.005712    0.186953
     2    0.034033   -0.049592   -0.186345
     3    0.085175   -0.015017   -0.036698
     4   -0.056138    0.066723    0.037046
-------------------------------------------
[...]
XC energy: 0
XC energy: 0
XC energy: 0
XC energy: 0
XC energy: 0
XC energy: 0
XC energy: 0
XC energy: 0
XC energy: 0
XC energy: 0
XC energy: 0
XC energy: 0
XC energy: 0
XC energy: 0
XC energy: 0
XC energy: 0
XC energy: 0
XC energy: 0
XC energy: 0
XC energy: 0
XC energy: 0
XC energy: 0
XC energy: 0
XC energy: 0
XC energy: 0
XC energy: 0
XC energy: 0
XC energy: 0
XC energy: 0
XC energy: 0
XC energy: 0
XC energy: 0
XC energy: 0
XC energy: 0
XC energy: 0
XC energy: 0
XC energy: 0
XC energy: 0
XC energy: 0
XC energy: 0
XC energy: 0
XC energy: 0
XC energy: 0
XC energy: 0
XC energy: 0
XC energy: 0
XC energy: 0
XC energy: 0
XC energy: 0
XC energy: 0
XC energy: 0
XC energy: 0
XC energy: 0
XC energy: 0
XC energy: 0
XC energy: 0
XC energy: 0
XC energy: 0
XC energy: 0
XC energy: 0
XC energy: 0
XC energy: 0
XC energy: 0
XC energy: 0
XC energy: 0
XC energy: 0
XC energy: 0
XC energy: 0
XC energy: 0
XC energy: 0
XC energy: 0
XC energy: 0
XC energy: 0
XC energy: 0
XC energy: 0
XC energy: 0
XC energy: 0
XC energy: 0
XC energy: 0
XC energy: 0
XC energy: 0
XC energy: 0
XC energy: 0
XC energy: 0
XC energy: 0
XC energy: 0
XC energy: 0
XC energy: 0
XC energy: 0
XC energy: 0
XC energy: 0
XC energy: 0
XC energy: 0
XC energy: 0
XC energy: 0
XC energy: 0
XC energy: 0
XC energy: 0
XC energy: 0
XC energy: 0
XC energy: 0
XC energy: 0
XC energy: 0
XC energy: 0
XC energy: 0
XC energy: 0
XC energy: 0
XC energy: 0
XC energy: 0
XC energy: 0
XC energy: 0
XC energy: 0
XC energy: 0
XC energy: 0
XC energy: 0
XC energy: 0
XC energy: 0
XC energy: 0
XC energy: 0
XC energy: 0
XC energy: 0
XC energy: 0
XC energy: 0
XC energy: 0
XC energy: 0
XC energy: 0
XC energy: 0
XC energy: 0
XC energy: 0
XC energy: 0
XC energy: 0
XC energy: 0
XC energy: 0
XC energy: 0
XC energy: 0
XC energy: 0
XC energy: 0
XC energy: 0
XC energy: 0
XC energy: 0
XC energy: 0
XC energy: 0
XC energy: 0
XC energy: 0
XC energy: 0
XC energy: 0
XC energy: 0
XC energy: 0
XC energy: 0
XC energy: 0
XC energy: 0
XC energy: 0
XC energy: 0
XC energy: 0
XC energy: 0
XC energy: 0
XC energy: 0
XC energy: 0
XC energy: 0
XC energy: 0
XC energy: 0
XC energy: 0
XC energy: 0
XC energy: 0
XC energy: 0
XC energy: 0
XC energy: 0
XC energy: 0
XC energy: 0
XC energy: 0
XC energy: 0
XC energy: 0
XC energy: 0
XC energy: 0
XC energy: 0
XC energy: 0
XC energy: 0
XC energy: 0
XC energy: 0
XC energy: 0
XC energy: 0
XC energy: 0
XC energy: 0
XC energy: 0
XC energy: 0
XC energy: 0
XC energy: 0
XC energy: 0
XC energy: 0
XC energy: 0
XC energy: 0
XC energy: 0
XC energy: 0
XC energy: 0
XC energy: 0
XC energy: 0
XC energy: 0
XC energy: 0
XC energy: 0
XC energy: 0
XC energy: 0
XC energy: 0
XC energy: 0
XC energy: 0
XC energy: 0
XC energy: 0
XC energy: 0
XC energy: 0
XC energy: 0
XC energy: 0
XC energy: 0
XC energy: 0
XC energy: 0
XC energy: 0
XC energy: 0
XC energy: 0
XC energy: 0
XC energy: 0
XC energy: 0
XC energy: 0
XC energy: 0
XC energy: 0
XC energy: 0
XC energy: 0
XC energy: 0
XC energy: 0
XC energy: 0
XC energy: 0
XC energy: 0
XC energy: 0
XC energy: 0
XC energy: 0
XC energy: 0
XC energy: 0
XC energy: 0
XC energy: 0
XC energy: 0
XC energy: 0
XC energy: 0
XC energy: 0
XC energy: 0
XC energy: 0
XC energy: 0
XC energy: 0
XC energy: 0
XC energy: 0
XC energy: 0
XC energy: 0
XC energy: 0
XC energy: 0
XC energy: 0
XC energy: 0
XC energy: 0
XC energy: 0
XC energy: 0
XC energy: 0
XC energy: 0
XC energy: 0
XC energy: 0
XC energy: 0
XC energy: 0
XC energy: 0
XC energy: 0
XC energy: 0
XC energy: 0
XC energy: 0
XC energy: 0
XC energy: 0
XC energy: 0
XC energy: 0
XC energy: 0
XC energy: 0
XC energy: 0
XC energy: 0
XC energy: 0
XC energy: 0
XC energy: 0
XC energy: 0
XC energy: 0
XC energy: 0
XC energy: 0
XC energy: 0
XC energy: 0
XC energy: 0
XC energy: 0
XC energy: 0
XC energy: 0
XC energy: 0
XC energy: 0
XC energy: 0
XC energy: 0
XC energy: 0
XC energy: 0
XC energy: 0
XC energy: 0
XC energy: 0
XC energy: 0
XC energy: 0
XC energy: 0
XC energy: 0
XC energy: 0
XC energy: 0
XC energy: 0
XC energy: 0
XC energy: 0
XC energy: 0
XC energy: 0
XC energy: 0
XC energy: 0
XC energy: 0
XC energy: 0
XC energy: 0
XC energy: 0
XC energy: 0
XC energy: 0
XC energy: 0
XC energy: 0
XC energy: 0
XC energy: 0
XC energy: 0
XC energy: 0
XC energy: 0
XC energy: 0
XC energy: 0
XC energy: 0
XC energy: 0
XC energy: 0
XC energy: 0
XC energy: 0
XC energy: 0
XC energy: 0
XC energy: 0
XC energy: 0
XC energy: 0
XC energy: 0
XC energy: 0
XC energy: 0
XC energy: 0
XC energy: 0
XC energy: 0
XC energy: 0
XC energy: 0
XC energy: 0
XC energy: 0
XC energy: 0
XC energy: 0
XC energy: 0
XC energy: 0
XC energy: 0
XC energy: 0
XC energy: 0
XC energy: 0
XC energy: 0
XC energy: 0
XC energy: 0
XC energy: 0
XC energy: 0
XC energy: 0
XC energy: 0
XC energy: 0
XC energy: 0
XC energy: 0
XC energy: 0
XC energy: 0
XC energy: 0
XC energy: 0
XC energy: 0
XC energy: 0
XC energy: 0
XC energy: 0
XC energy: 0
XC energy: 0
XC energy: 0
XC energy: 0
XC energy: 0
XC energy: 0
XC energy: 0
XC energy: 0
XC energy: 0
XC energy: 0
XC energy: 0
XC energy: 0
XC energy: 0
XC energy: 0
XC energy: 0
XC energy: 0
XC energy: 0
XC energy: 0
XC energy: 0
XC energy: 0
XC energy: 0
XC energy: 0
XC energy: 0
XC energy: 0
XC energy: 0
XC energy: 0
XC energy: 0
XC energy: 0
XC energy: 0
XC energy: 0
XC energy: 0
XC energy: 0
XC energy: 0
XC energy: 0
XC energy: 0
XC energy: 0
XC energy: 0
XC energy: 0
XC energy: 0
XC energy: 0
XC energy: 0
XC energy: 0
XC energy: 0
XC energy: 0
XC energy: 0
XC energy: 0
XC energy: 0
XC energy: 0
XC energy: 0
XC energy: 0
XC energy: 0
XC energy: 0
XC energy: 0
XC energy: 0
XC energy: 0
XC energy: 0
XC energy: 0
XC energy: 0
XC energy: 0
XC energy: 0
XC energy: 0
XC energy: 0
XC energy: 0
XC energy: 0
XC energy: 0
XC energy: 0
XC energy: 0
XC energy: 0
XC energy: 0
XC energy: 0
XC energy: 0
XC energy: 0
XC energy: 0
XC energy: 0
XC energy: 0
XC energy: 0
XC energy: 0
XC energy: 0
XC energy: 0
XC energy: 0
XC energy: 0
XC energy: 0
XC energy: 0
XC energy: 0
XC energy: 0
XC energy: 0
XC energy: 0
XC energy: 0
XC energy: 0
XC energy: 0
XC energy: 0
XC energy: 0
XC energy: 0
XC energy: 0
XC energy: 0
XC energy: 0
XC energy: 0
XC energy: 0
XC energy: 0
XC energy: 0
XC energy: 0
XC energy: 0
XC energy: 0
XC energy: 0
XC energy: 0
XC energy: 0
XC energy: 0
XC energy: 0
XC energy: 0
XC energy: 0
XC energy: 0
XC energy: 0
XC energy: 0
XC energy: 0
XC energy: 0
XC energy: 0
XC energy: 0
XC energy: 0
XC energy: 0
XC energy: 0
XC energy: 0
XC energy: 0
XC energy: 0
XC energy: 0
XC energy: 0
XC energy: 0
XC energy: 0
XC energy: 0
XC energy: 0
XC energy: 0
XC energy: 0
XC energy: 0
XC energy: 0
XC energy: 0
XC energy: 0
XC energy: 0
XC energy: 0
XC energy: 0
XC energy: 0
XC energy: 0
XC energy: 0
XC energy: 0
XC energy: 0
XC energy: 0
XC energy: 0
XC energy: 0
XC energy: 0
XC energy: 0
XC energy: 0
XC energy: 0
XC energy: 0
XC energy: 0
XC energy: 0
XC energy: 0
XC energy: 0
XC energy: 0
XC energy: 0
XC energy: 0
XC energy: 0
XC energy: 0
XC energy: 0
XC energy: 0
XC energy: 0
XC energy: 0
XC energy: 0
XC energy: 0
XC energy: 0
XC energy: 0
XC energy: 0
XC energy: 0
XC energy: 0
XC energy: 0
XC energy: 0
XC energy: 0
XC energy: 0
XC energy: 0
XC energy: 0
XC energy: 0
XC energy: 0
XC energy: 0
XC energy: 0
XC energy: 0
XC energy: 0
XC energy: 0
XC energy: 0
XC energy: 0
XC energy: 0
XC energy: 0
XC energy: 0
XC energy: 0
XC energy: 0
XC energy: 0
XC energy: 0
XC energy: 0
XC energy: 0
XC energy: 0
XC energy: 0
XC energy: 0
XC energy: 0
XC energy: 0
XC energy: 0
XC energy: 0
XC energy: 0
XC energy: 0
XC energy: 0
XC energy: 0
XC energy: 0
XC energy: 0
XC energy: 0
XC energy: 0
XC energy: 0
XC energy: 0
XC energy: 0
XC energy: 0
XC energy: 0
XC energy: 0
XC energy: 0
XC energy: 0
XC energy: 0
XC energy: 0
XC energy: 0
XC energy: 0
XC energy: 0
XC energy: 0
XC energy: 0
XC energy: 0
XC energy: 0
XC energy: 0
XC energy: 0
XC energy: 0
XC energy: 0
XC energy: 0
XC energy: 0
XC energy: 0
XC energy: 0
XC energy: 0
XC energy: 0
XC energy: 0
XC energy: 0
XC energy: 0
XC energy: 0
XC energy: 0
XC energy: 0
XC energy: 0
XC energy: 0
XC energy: 0
XC energy: 0
XC energy: 0
XC energy: 0
XC energy: 0
XC energy: 0
XC energy: 0
XC energy: 0
XC energy: 0
XC energy: 0
XC energy: 0
XC energy: 0
XC energy: 0
XC energy: 0
XC energy: 0
XC energy: 0
XC energy: 0
XC energy: 0
XC energy: 0
XC energy: 0
XC energy: 0
XC energy: 0
XC energy: 0
XC energy: 0
XC energy: 0
XC energy: 0
XC energy: 0
XC energy: 0
XC energy: 0
XC energy: 0
XC energy: 0
XC energy: 0
XC energy: 0
XC energy: 0
XC energy: 0
XC energy: 0
XC energy: 0
XC energy: 0
XC energy: 0
XC energy: 0
XC energy: 0
XC energy: 0
XC energy: 0
XC energy: 0
XC energy: 0
XC energy: 0
XC energy: 0
XC energy: 0
XC energy: 0
XC energy: 0
XC energy: 0
XC energy: 0
XC energy: 0
XC energy: 0
XC energy: 0
XC energy: 0
XC energy: 0
XC energy: 0
XC energy: 0
XC energy: 0
XC energy: 0
XC energy: 0
XC energy: 0
XC energy: 0
XC energy: 0
XC energy: 0
XC energy: 0
XC energy: 0
XC energy: 0
XC energy: 0
XC energy: 0
XC energy: 0
XC energy: 0
XC energy: 0
XC energy: 0
XC energy: 0
XC energy: 0
XC energy: 0
XC energy: 0
XC energy: 0
XC energy: 0
XC energy: 0
XC energy: 0
XC energy: 0
XC energy: 0
XC energy: 0
XC energy: 0
XC energy: 0
XC energy: 0
XC energy: 0
XC energy: 0
XC energy: 0
XC energy: 0
XC energy: 0
XC energy: 0
XC energy: 0
XC energy: 0
XC energy: 0
XC energy: 0
XC energy: 0
XC energy: 0
XC energy: 0
XC energy: 0
XC energy: 0
XC energy: 0
XC energy: 0
XC energy: 0
XC energy: 0
XC energy: 0
XC energy: 0
XC energy: 0
XC energy: 0
XC energy: 0
XC energy: 0
XC energy: 0
XC energy: 0
XC energy: 0
XC energy: 0
XC energy: 0
XC energy: 0
XC energy: 0
XC energy: 0
XC energy: 0
XC energy: 0
XC energy: 0
XC energy: 0
XC energy: 0
XC energy: 0
XC energy: 0
XC energy: 0
XC energy: 0
XC energy: 0
XC energy: 0
XC energy: 0
XC energy: 0
XC energy: 0
XC energy: 0
XC energy: 0
XC energy: 0
XC energy: 0
XC energy: 0
XC energy: 0
XC energy: 0
XC energy: 0
XC energy: 0
XC energy: 0
XC energy: 0
XC energy: 0
XC energy: 0
XC energy: 0
XC energy: 0
XC energy: 0
XC energy: 0
XC energy: 0
XC energy: 0
XC energy: 0
XC energy: 0
XC energy: 0
XC energy: 0
XC energy: 0
XC energy: 0
XC energy: 0
XC energy: 0
XC energy: 0
XC energy: 0
XC energy: 0
XC energy: 0
XC energy: 0
XC energy: 0
XC energy: 0
XC energy: 0
XC energy: 0
XC energy: 0
XC energy: 0
XC energy: 0
XC energy: 0
XC energy: 0
XC energy: 0
XC energy: 0
XC energy: 0
XC energy: 0
XC energy: 0
XC energy: 0
XC energy: 0
XC energy: 0
XC energy: 0
XC energy: 0
XC energy: 0
XC energy: 0
XC energy: 0
XC energy: 0
XC energy: 0
XC energy: 0
XC energy: 0
XC energy: 0
XC energy: 0
XC energy: 0
XC energy: 0
XC energy: 0
XC energy: 0
XC energy: 0
XC energy: 0
XC energy: 0
XC energy: 0
XC energy: 0
XC energy: 0
XC energy: 0
XC energy: 0
XC energy: 0
XC energy: 0
XC energy: 0
XC energy: 0
XC energy: 0
XC energy: 0
XC energy: 0
XC energy: 0
XC energy: 0
XC energy: 0
XC energy: 0
XC energy: 0
XC energy: 0
XC energy: 0
XC energy: 0
XC energy: 0
XC energy: 0
XC energy: 0
XC energy: 0
XC energy: 0
XC energy: 0
XC energy: 0
XC energy: 0
XC energy: 0
XC energy: 0
XC energy: 0
XC energy: 0
XC energy: 0
XC energy: 0
XC energy: 0
XC energy: 0
XC energy: 0
XC energy: 0
XC energy: 0
XC energy: 0
XC energy: 0
XC energy: 0
XC energy: 0
XC energy: 0
XC energy: 0
XC energy: 0
XC energy: 0
XC energy: 0
XC energy: 0
XC energy: 0
XC energy: 0
XC energy: 0
XC energy: 0
XC energy: 0
XC energy: 0
XC energy: 0
XC energy: 0
XC energy: 0
XC energy: 0
XC energy: 0
XC energy: 0
XC energy: 0
XC energy: 0
XC energy: 0
XC energy: 0
XC energy: 0
XC energy: 0
XC energy: 0
XC energy: 0
XC energy: 0
XC energy: 0
XC energy: 0
XC energy: 0
XC energy: 0
XC energy: 0
XC energy: 0
XC energy: 0
XC energy: 0
XC energy: 0
XC energy: 0
XC energy: 0
XC energy: 0
XC energy: 0
XC energy: 0
XC energy: 0
XC energy: 0
XC energy: 0
XC energy: 0
XC energy: 0
XC energy: 0
XC energy: 0
XC energy: 0
XC energy: 0
XC energy: 0
XC energy: 0
XC energy: 0
XC energy: 0
XC energy: 0
XC energy: 0
XC energy: 0
XC energy: 0
XC energy: 0
XC energy: 0
XC energy: 0
XC energy: 0
XC energy: 0
XC energy: 0
XC energy: 0
XC energy: 0
XC energy: 0
XC energy: 0
XC energy: 0
XC energy: 0
XC energy: 0
XC energy: 0
XC energy: 0
XC energy: 0
XC energy: 0
XC energy: 0
XC energy: 0
XC energy: 0
XC energy: 0
XC energy: 0
XC energy: 0
XC energy: 0
XC energy: 0
XC energy: 0
XC energy: 0
XC energy: 0
XC energy: 0
XC energy: 0
XC energy: 0
XC energy: 0
XC energy: 0
XC energy: 0
XC energy: 0
XC energy: 0
XC energy: 0
XC energy: 0
XC energy: 0
XC energy: 0
XC energy: 0
XC energy: 0
XC energy: 0
XC energy: 0
XC energy: 0
XC energy: 0
XC energy: 0
XC energy: 0
XC energy: 0
XC energy: 0
XC energy: 0
XC energy: 0
XC energy: 0
XC energy: 0
XC energy: 0
XC energy: 0
XC energy: 0
XC energy: 0
XC energy: 0
XC energy: 0
XC energy: 0
XC energy: 0
XC energy: 0
XC energy: 0
XC energy: 0
XC energy: 0
XC energy: 0
XC energy: 0
XC energy: 0
XC energy: 0
XC energy: 0
XC energy: 0
XC energy: 0
XC energy: 0
XC energy: 0
XC energy: 0
XC energy: 0
XC energy: 0
XC energy: 0
XC energy: 0
XC energy: 0
XC energy: 0
XC energy: 0
XC energy: 0
XC energy: 0
XC energy: 0
XC energy: 0
XC energy: 0
XC energy: 0
XC energy: 0
XC energy: 0
XC energy: 0
XC energy: 0
XC energy: 0
XC energy: 0
XC energy: 0
XC energy: 0
XC energy: 0
XC energy: 0
XC energy: 0
XC energy: 0
XC energy: 0
XC energy: 0
XC energy: 0
XC energy: 0
XC energy: 0
XC energy: 0
XC energy: 0
XC energy: 0
XC energy: 0
XC energy: 0
XC energy: 0
XC energy: 0
XC energy: 0
XC energy: 0
XC energy: 0
XC energy: 0
XC energy: 0
XC energy: 0
XC energy: 0
XC energy: 0
XC energy: 0
XC energy: 0
XC energy: 0
XC energy: 0
XC energy: 0
XC energy: 0
XC energy: 0
XC energy: 0
XC energy: 0
XC energy: 0
XC energy: 0
XC energy: 0
XC energy: 0
XC energy: 0
XC energy: 0
XC energy: 0
XC energy: 0
XC energy: 0
XC energy: 0
XC energy: 0
XC energy: 0
XC energy: 0
XC energy: 0
XC energy: 0
XC energy: 0
XC energy: 0
XC energy: 0
XC energy: 0
XC energy: 0
XC energy: 0
XC energy: 0
XC energy: 0
XC energy: 0
XC energy: 0
XC energy: 0
XC energy: 0
XC energy: 0
XC energy: 0
XC energy: 0
XC energy: 0
XC energy: 0
XC energy: 0
XC energy: 0
XC energy: 0
XC energy: 0
XC energy: 0
XC energy: 0
XC energy: 0
XC energy: 0
XC energy: 0
XC energy: 0
XC energy: 0
XC energy: 0
XC energy: 0
XC energy: 0
XC energy: 0
XC energy: 0
XC energy: 0
XC energy: 0
XC energy: 0
XC energy: 0
XC energy: 0
XC energy: 0
XC energy: 0
XC energy: 0
XC energy: 0
XC energy: 0
XC energy: 0
XC energy: 0
XC energy: 0
XC energy: 0
XC energy: 0
XC energy: 0
XC energy: 0
XC energy: 0
XC energy: 0
XC energy: 0
XC energy: 0
XC energy: 0
XC energy: 0
XC energy: 0
XC energy: 0
XC energy: 0
XC energy: 0
XC energy: 0
XC energy: 0
XC energy: 0
XC energy: 0
XC energy: 0
XC energy: 0
XC energy: 0
XC energy: 0
XC energy: 0
XC energy: 0
XC energy: 0
XC energy: 0
XC energy: 0
XC energy: 0
XC energy: 0
XC energy: 0
XC energy: 0
XC energy: 0
XC energy: 0
XC energy: 0
XC energy: 0
XC energy: 0
XC energy: 0
XC energy: 0
XC energy: 0
XC energy: 0
XC energy: 0
XC energy: 0
XC energy: 0
XC energy: 0
XC energy: 0
XC energy: 0
XC energy: 0
XC energy: 0
XC energy: 0
XC energy: 0
XC energy: 0
XC energy: 0
XC energy: 0
XC energy: 0
XC energy: 0
XC energy: 0
XC energy: 0
XC energy: 0
XC energy: 0
XC energy: 0
XC energy: 0
XC energy: 0
XC energy: 0
XC energy: 0
XC energy: 0
XC energy: 0
XC energy: 0
XC energy: 0
XC energy: 0
XC energy: 0
XC energy: 0
XC energy: 0
XC energy: 0
XC energy: 0
XC energy: 0
XC energy: 0
XC energy: 0
XC energy: 0
XC energy: 0
XC energy: 0
XC energy: 0
XC energy: 0
XC energy: 0
XC energy: 0
XC energy: 0
XC energy: 0
XC energy: 0
XC energy: 0
XC energy: 0
XC energy: 0
XC energy: 0
XC energy: 0
XC energy: 0
XC energy: 0
XC energy: 0
XC energy: 0
XC energy: 0
XC energy: 0
XC energy: 0
XC energy: 0
XC energy: 0
XC energy: 0
XC energy: 0
XC energy: 0
XC energy: 0
XC energy: 0
XC energy: 0
XC energy: 0
XC energy: 0
XC energy: 0
XC energy: 0
XC energy: 0
XC energy: 0
XC energy: 0
XC energy: 0
XC energy: 0
XC energy: 0
XC energy: 0
XC energy: 0
XC energy: 0
XC energy: 0
XC energy: 0
XC energy: 0
XC energy: 0
XC energy: 0
XC energy: 0
XC energy: 0
XC energy: 0
XC energy: 0
XC energy: 0
XC energy: 0
XC energy: 0
XC energy: 0
XC energy: 0
XC energy: 0
XC energy: 0
XC energy: 0
XC energy: 0
XC energy: 0
XC energy: 0
XC energy: 0
XC energy: 0
XC energy: 0
XC energy: 0
XC energy: 0
XC energy: 0
XC energy: 0
XC energy: 0
XC energy: 0
XC energy: 0
XC energy: 0
XC energy: 0
XC energy: 0
XC energy: 0
XC energy: 0
XC energy: 0
XC energy: 0
XC energy: 0
XC energy: 0
XC energy: 0
XC energy: 0
XC energy: 0
XC energy: 0
XC energy: 0
XC energy: 0
XC energy: 0
XC energy: 0
XC energy: 0
XC energy: 0
XC energy: 0
XC energy: 0
XC energy: 0
XC energy: 0
XC energy: 0
XC energy: 0
XC energy: 0
XC energy: 0
XC energy: 0
XC energy: 0
XC energy: 0
XC energy: 0
XC energy: 0
XC energy: 0
XC energy: 0
XC energy: 0
XC energy: 0
XC energy: 0
XC energy: 0
XC energy: 0
XC energy: 0
XC energy: 0
XC energy: 0
XC energy: 0
XC energy: 0
XC energy: 0
XC energy: 0
XC energy: 0
XC energy: 0
XC energy: 0
XC energy: 0
XC energy: 0
XC energy: 0
XC energy: 0
XC energy: 0
XC energy: 0
XC energy: 0
XC energy: 0
XC energy: 0
XC energy: 0
XC energy: 0
XC energy: 0
XC energy: 0
XC energy: 0
XC energy: 0
XC energy: 0
XC energy: 0
XC energy: 0
XC energy: 0
XC energy: 0
XC energy: 0
XC energy: 0
XC energy: 0
XC energy: 0
XC energy: 0
XC energy: 0
XC energy: 0
XC energy: 0
XC energy: 0
XC energy: 0
XC energy: 0
XC energy: 0
XC energy: 0
XC energy: 0
XC energy: 0
XC energy: 0
XC energy: 0
XC energy: 0
XC energy: 0
XC energy: 0
XC energy: 0
XC energy: 0
XC energy: 0
XC energy: 0
XC energy: 0
XC energy: 0
XC energy: 0
XC energy: 0
XC energy: 0
XC energy: 0
XC energy: 0
XC energy: 0
XC energy: 0
XC energy: 0
XC energy: 0
XC energy: 0
XC energy: 0
XC energy: 0
XC energy: 0
XC energy: 0
XC energy: 0
XC energy: 0
XC energy: 0
XC energy: 0
XC energy: 0
XC energy: 0
XC energy: 0
XC energy: 0
XC energy: 0
XC energy: 0
XC energy: 0
XC energy: 0
XC energy: 0
XC energy: 0
XC energy: 0
XC energy: 0
XC energy: 0
XC energy: 0
XC energy: 0
XC energy: 0
XC energy: 0
XC energy: 0
XC energy: 0
XC energy: 0
XC energy: 0
XC energy: 0
XC energy: 0
XC energy: 0
XC energy: 0
XC energy: 0
XC energy: 0
XC energy: 0
XC energy: 0
XC energy: 0
XC energy: 0
XC energy: 0
XC energy: 0
XC energy: 0
XC energy: 0
XC energy: 0
XC energy: 0
XC energy: 0
XC energy: 0
XC energy: 0
XC energy: 0
XC energy: 0
XC energy: 0
XC energy: 0
XC energy: 0
XC energy: 0
XC energy: 0
XC energy: 0
XC energy: 0
XC energy: 0
XC energy: 0
XC energy: 0
XC energy: 0
XC energy: 0
XC energy: 0
XC energy: 0
XC energy: 0
XC energy: 0
XC energy: 0
XC energy: 0
XC energy: 0
XC energy: 0
XC energy: 0
XC energy: 0
XC energy: 0
XC energy: 0
XC energy: 0
XC energy: 0
XC energy: 0
XC energy: 0
XC energy: 0
XC energy: 0
XC energy: 0
XC energy: 0
XC energy: 0
XC energy: 0
XC energy: 0
XC energy: 0
XC energy: 0
XC energy: 0
XC energy: 0
XC energy: 0
XC energy: 0
XC energy: 0
XC energy: 0
XC energy: 0
XC energy: 0
XC energy: 0
XC energy: 0
XC energy: 0
XC energy: 0
XC energy: 0
XC energy: 0
XC energy: 0
XC energy: 0
XC energy: 0
XC energy: 0
XC energy: 0
XC energy: 0
XC energy: 0
XC energy: 0
XC energy: 0
XC energy: 0
XC energy: 0
XC energy: 0
XC energy: 0
XC energy: 0
XC energy: 0
XC energy: 0
XC energy: 0
XC energy: 0
XC energy: 0
XC energy: 0
XC energy: 0
XC energy: 0
XC energy: 0
XC energy: 0
XC energy: 0
XC energy: 0
XC energy: 0
XC energy: 0
XC energy: 0
XC energy: 0
XC energy: 0
XC energy: 0
XC energy: 0
XC energy: 0
XC energy: 0
XC energy: 0
XC energy: 0
XC energy: 0
XC energy: 0
XC energy: 0
XC energy: 0
XC energy: 0
XC energy: 0
XC energy: 0
XC energy: 0
XC energy: 0
XC energy: 0
XC energy: 0
XC energy: 0
XC energy: 0
XC energy: 0
XC energy: 0
XC energy: 0
XC energy: 0
XC energy: 0
XC energy: 0
XC energy: 0
XC energy: 0
XC energy: 0
XC energy: 0
XC energy: 0
XC energy: 0
XC energy: 0
XC energy: 0
XC energy: 0
XC energy: 0
 NO CONVERGENCE AT         2000  ITERATIONS
 stop for not convergion 4 times
