HYBRID 1.1.17 -- [ MMxQM w/ LA ] (31 Ago 2005)
Architecture  : 
Compiler flags: ifort -w -O2 -mp
SERIAL version

hybrid: Running in serial mode
>> Start of run:  11-DEC-2017  16:08:10

                           ***********************       
                           *  WELCOME TO HYBRID  *       
                           ***********************       

reinit: Reading from standard input
************************** Dump of input data file ****************************
SystemName     cut5
SystemLabel    cut5
CenterMolecule T
NumberOfAtoms         4
NumberOfSpecies      2
NetCharge 0.0
FixSpin  T
TotalSpin 0.0
MD.MaxForceTol    0.04 eV/Ang
NumberOfSolventAtoms      0
%block ChemicalSpeciesLabel
       1   8  O
       2   1  H
%endblock ChemicalSpeciesLabel
AtomicCoordinatesFormat  Ang
%block AtomicCoordinatesAndAtomicSpecies
   0.00000   0.00000   0.000000        1
   0.00000   0.00000   1.480000        1
   0.89567   0.00000  -0.316663        2
  -0.44783   0.77567   1.796667        2
%endblock AtomicCoordinatesAndAtomicSpecies
%block SoluteAtomTypes
  OH  O1    AOX
  OH  O2    AOX
  HO  H1    AOX
  HO  H2    AOX
%endblock SoluteAtomTypes
PAO.BasisType split
PAO.BasisSize       DZP
PAO.EnergyShift      25 meV
PAO.SplitNorm       0.15
WriteMDXmol F
WriteMullikenPop 0
XC.functional       GGA
XC.authors          PBE
MeshCutoff         150.0 Ry
SpinPolarized        T
MaxSCFIterations    80
DM.MixingWeight      0.1
DM.NumberPulay       3
DM.UseSaveDM   T
MD.USeSaveXV   T
MD.UseSaveCG   T
LongOutput    F
MD.TypeOfRun    CG
MD.NumCGsteps   0
%block CutOffRadius
QM  0.2
QMMM 100.0
MM 80.0
BLO 80.0
%endblock CutOffRadius
%block SolventInput
%endblock SolventInput
************************** End of input data file *****************************

reinit: -----------------------------------------------------------------------
reinit: System Name: cut5                                                       
reinit: -----------------------------------------------------------------------
reinit: System Label: cut5                
reinit: -----------------------------------------------------------------------

hybrid: Running with no MM atoms
 
read:***********************************************************************
read: Atomic-coordinates input format  =     Cartesian coordinates (in Ang)
read: Total number of electrons        =    18
read: Dynamics option                  =     CG coord. optimization
read: Use continuation files for CG    =     T
read: Use continuation files for XV    =     T
read: Maximum number of CG moves       =     0
read: Max atomic displ per move        =     0.2000  Bohr
read: Force tolerance                  =     0.0016  Ry/Bohr
read: Write coordinates each           =     1  steps
read: Mulliken population analysis     =     0
read: MM x QM steps                    =     1
read: Write forces QM-MM               =     1
read: ***********************************************************************
 buscando cut5.XV                          

ioxv: WARNING: XV file not found
<====== Initializing G2G ======>
GPU Device used: GeForce GTX 580
Kernels: gpu
Kernels: cpu
Using 3 CPU Threads and 1 GPU Threads
 JOB STARTED NOW
lun dic 11 16:08:10 -03 2017
basis set corresponding to Z   6 was not used
basis set corresponding to Z   7 was not used
basis set corresponding to Z  17 was not used
basis set corresponding to Z  26 was not used
basis set corresponding to Z  16 was not used
<======= GPU Code Initialization ========>
atoms: 4
max atoms: 4
number of gaussians: 34
do_forces: false
s: 10 p: 4 d: 2
m: 34 nco: 9
 nco: 9
density basis: s: 22 p: 6 d: 6
density basis: m: 76
Using device 0 for analytic integral calculations

hybrid: unit cell vectors (Ang) from siesta run:
        0.000000    0.000000    0.000000
        0.000000    0.000000    0.000000
        0.000000    0.000000    0.000000

center: System centered in cell

hybrid:                 ==============================
                            Begin CG move =      0
                        ==============================
 nivel de optimizacion:            3
 defino cuts 
 doing SCF_in
 atoms QM, MM, totals           4           0           4
 doing SCF? T
 doing forces? T
Weights: 107594us.
Particion 0: 3071760
Particion 1: 2904010
Particion 2: 3010600
Relacion max / min = 1.057765
--> Thread OMP: 4
--> Thread CPU: 3
--> Thread GPU: 1
--> Correccion de cubos chicos: 250000
--> Puntos de separacion: 200
Timer functions: 5949us.
MM point charges: 0
XC energy: 0
XC energy: 0
XC energy: 0
XC energy: 0
XC energy: 0
XC energy: 0
XC energy: 0
XC energy: 0
XC energy: 0
XC energy: 0
XC energy: 0
XC energy: 0
 CONVERGED AT          12 ITERATIONS
XC energy: -17.6437
 
    ╔════════════════════════════════════════════╗
    ║        ENERGY CONTRIBUTIONS IN A.U.        ║
    ╠══════════════════╦═════════════════════════╣
    ║   ONE ELECTRON   ║      -280.1165095       ║
    ╠══════════════════╬═════════════════════════╣
    ║   COULOMB        ║       110.1265581       ║
    ╠══════════════════╬═════════════════════════╣
    ║   NUCLEAR        ║        36.2151634       ║
    ╠══════════════════╬═════════════════════════╣
    ║   EXC. - CORR.   ║       -17.6436859       ║
    ╠══════════════════╬═════════════════════════╣
    ║   TOTAL          ║      -151.4184738       ║
    ╚══════════════════╩═════════════════════════╝
 
 Lio  E(H)  -151.418473828457     
 Lio  E(eV)  -4120.30807304903     
XC energy: -17.6437
 

hybrid: Energy Decomposition (eV):
Esiesta:      -4120.308073

hybrid: Total Free Atoms:      4

hybrid: Atomic forces (eV/Ang):
     1   -6.433625    1.018628    1.269478
     2    4.099435   -5.063139   -1.270038
     3    4.237112    0.255722    0.982075
     4   -1.897449    3.797287   -0.982962
-------------------------------------------
 Tot    0.005474    0.008499   -0.001447
-------------------------------------------
 Max    6.433625  free, atom      1
 Res    3.241185  sqrt( Sum f_i^2 / 3N )
-------------------------------------------
 Max    6.433625  cons, atom      1

cgvc: WARNING: CG file not found
 centrando sistema
  Econtribution          0.000000        -4120.308073            0.000000            0.000000            0.000000            0.000000        -4120.308073
<====== Deinitializing G2G ======>
>> End of run:  11-DEC-2017  16:08:12
HYBRID 1.1.17 -- [ MMxQM w/ LA ] (31 Ago 2005)
Architecture  : 
Compiler flags: ifort -w -O2 -mp
SERIAL version

hybrid: Running in serial mode
>> Start of run:  11-DEC-2017  16:09:01

                           ***********************       
                           *  WELCOME TO HYBRID  *       
                           ***********************       

reinit: Reading from standard input
************************** Dump of input data file ****************************
SystemName     cut5
SystemLabel    cut5
CenterMolecule T
NumberOfAtoms         4
NumberOfSpecies      2
NetCharge 0.0
FixSpin  T
TotalSpin 0.0
MD.MaxForceTol    0.04 eV/Ang
NumberOfSolventAtoms      0
%block ChemicalSpeciesLabel
       1   8  O
       2   1  H
%endblock ChemicalSpeciesLabel
AtomicCoordinatesFormat  Ang
%block AtomicCoordinatesAndAtomicSpecies
   0.00000   0.00000   0.000000        1
   0.00000   0.00000   1.480000        1
   0.89567   0.00000  -0.316663        2
  -0.44783   0.77567   1.796667        2
%endblock AtomicCoordinatesAndAtomicSpecies
%block SoluteAtomTypes
  OH  O1    AOX
  OH  O2    AOX
  HO  H1    AOX
  HO  H2    AOX
%endblock SoluteAtomTypes
PAO.BasisType split
PAO.BasisSize       DZP
PAO.EnergyShift      25 meV
PAO.SplitNorm       0.15
WriteMDXmol F
WriteMullikenPop 0
XC.functional       GGA
XC.authors          PBE
MeshCutoff         150.0 Ry
SpinPolarized        T
MaxSCFIterations    80
DM.MixingWeight      0.1
DM.NumberPulay       3
DM.UseSaveDM   T
MD.USeSaveXV   T
MD.UseSaveCG   T
LongOutput    F
MD.TypeOfRun    CG
MD.NumCGsteps   500
%block CutOffRadius
QM  0.2
QMMM 100.0
MM 80.0
BLO 80.0
%endblock CutOffRadius
%block SolventInput
%endblock SolventInput
************************** End of input data file *****************************

reinit: -----------------------------------------------------------------------
reinit: System Name: cut5                                                       
reinit: -----------------------------------------------------------------------
reinit: System Label: cut5                
reinit: -----------------------------------------------------------------------

hybrid: Running with no MM atoms
 
read:***********************************************************************
read: Atomic-coordinates input format  =     Cartesian coordinates (in Ang)
read: Total number of electrons        =    18
read: Dynamics option                  =     CG coord. optimization
read: Use continuation files for CG    =     T
read: Use continuation files for XV    =     T
read: Maximum number of CG moves       =   500
read: Max atomic displ per move        =     0.2000  Bohr
read: Force tolerance                  =     0.0016  Ry/Bohr
read: Write coordinates each           =     1  steps
read: Mulliken population analysis     =     0
read: MM x QM steps                    =     1
read: Write forces QM-MM               =     1
read: ***********************************************************************
 buscando cut5.XV                          

ioxv: Reading coordinates and velocities from file
<====== Initializing G2G ======>
GPU Device used: GeForce GTX 580
Kernels: gpu
Kernels: cpu
Using 3 CPU Threads and 1 GPU Threads
 JOB STARTED NOW
lun dic 11 16:09:01 -03 2017
basis set corresponding to Z   6 was not used
basis set corresponding to Z   7 was not used
basis set corresponding to Z  17 was not used
basis set corresponding to Z  26 was not used
basis set corresponding to Z  16 was not used
<======= GPU Code Initialization ========>
atoms: 4
max atoms: 4
number of gaussians: 34
do_forces: false
s: 10 p: 4 d: 2
m: 34 nco: 9
 nco: 9
density basis: s: 22 p: 6 d: 6
density basis: m: 76
Using device 0 for analytic integral calculations

hybrid: unit cell vectors (Ang) from siesta run:
        0.000000    0.000000    0.000000
        0.000000    0.000000    0.000000
        0.000000    0.000000    0.000000

hybrid:                 ==============================
                            Begin CG move =      0
                        ==============================
 nivel de optimizacion:            3
 defino cuts 
 doing SCF_in
 atoms QM, MM, totals           4           0           4
 doing SCF? T
 doing forces? T
Weights: 217632us.
Particion 0: 2907730
Particion 1: 3155340
Particion 2: 3010870
Relacion max / min = 1.085156
--> Thread OMP: 4
--> Thread CPU: 3
--> Thread GPU: 1
--> Correccion de cubos chicos: 250000
--> Puntos de separacion: 200
Timer functions: 2371us.
MM point charges: 0
XC energy: 0
XC energy: 0
XC energy: 0
XC energy: 0
XC energy: 0
XC energy: 0
XC energy: 0
XC energy: 0
XC energy: 0
XC energy: 0
XC energy: 0
XC energy: 0
 CONVERGED AT          12 ITERATIONS
XC energy: -17.5757
 
    ╔════════════════════════════════════════════╗
    ║        ENERGY CONTRIBUTIONS IN A.U.        ║
    ╠══════════════════╦═════════════════════════╣
    ║   ONE ELECTRON   ║      -279.3402013       ║
    ╠══════════════════╬═════════════════════════╣
    ║   COULOMB        ║       109.7590649       ║
    ╠══════════════════╬═════════════════════════╣
    ║   NUCLEAR        ║        35.7356158       ║
    ╠══════════════════╬═════════════════════════╣
    ║   EXC. - CORR.   ║       -17.5757068       ║
    ╠══════════════════╬═════════════════════════╣
    ║   TOTAL          ║      -151.4212274       ║
    ╚══════════════════╩═════════════════════════╝
 
 Lio  E(H)  -151.421227426389     
 Lio  E(eV)  -4120.38300229315     
XC energy: -17.5757
 

hybrid: Energy Decomposition (eV):
Esiesta:      -4120.383002

hybrid: Total Free Atoms:      4

hybrid: Atomic forces (eV/Ang):
     1    3.178496    0.304978   -1.925776
     2   -1.325628    2.908832    1.925842
     3   -4.026596    0.190468    2.173961
     4    2.178134   -3.392095   -2.174352
-------------------------------------------
 Tot    0.004406    0.012184   -0.000324
-------------------------------------------
 Max    4.026596  free, atom      3
 Res    2.411538  sqrt( Sum f_i^2 / 3N )
-------------------------------------------
 Max    4.026596  cons, atom      3

iocg: Reading CG continuation file
 centrando sistema

hybrid:                 ==============================
                            Begin CG move =      1
                        ==============================
 nivel de optimizacion:            3
 doing SCF_in
 atoms QM, MM, totals           4           0           4
 doing SCF? T
 doing forces? T
Weights: 2777us.
Particion 0: 3152600
Particion 1: 2903920
Particion 2: 3010540
Relacion max / min = 1.085636
--> Thread OMP: 4
--> Thread CPU: 3
--> Thread GPU: 1
--> Correccion de cubos chicos: 250000
--> Puntos de separacion: 200
Timer functions: 921us.
MM point charges: 0
XC energy: 0
XC energy: 0
XC energy: 0
XC energy: 0
XC energy: 0
XC energy: 0
XC energy: 0
XC energy: 0
XC energy: 0
 CONVERGED AT           9 ITERATIONS
XC energy: -17.5999
 Lio  E(H)  -151.424161344224     
 Lio  E(eV)  -4120.46283829356     
XC energy: -17.5999
 

hybrid: Energy Decomposition (eV):
Esiesta:      -4120.462838

hybrid: Atomic forces (eV/Ang):
     1    0.205358    0.592039   -0.977517
     2    0.409312    0.475955    0.977169
     3   -1.547107    0.187794    1.964305
     4    0.935247   -1.245327   -1.965556
-------------------------------------------
 Tot    0.002810    0.010461   -0.001599
-------------------------------------------
 Max    1.965556  free, atom      4
 Res    1.128177  sqrt( Sum f_i^2 / 3N )
-------------------------------------------
 Max    1.965556  cons, atom      4

cgvc: Finished line minimization    1.  Mean atomic displacement =    0.0627
 centrando sistema

hybrid:                 ==============================
                            Begin CG move =      2
                        ==============================
 nivel de optimizacion:            3
 doing SCF_in
 atoms QM, MM, totals           4           0           4
 doing SCF? T
 doing forces? T
Weights: 2701us.
Particion 0: 2943590
Particion 1: 3151670
Particion 2: 3010840
Relacion max / min = 1.070689
--> Thread OMP: 4
--> Thread CPU: 3
--> Thread GPU: 1
--> Correccion de cubos chicos: 250000
--> Puntos de separacion: 200
Timer functions: 2360us.
MM point charges: 0
XC energy: 0
XC energy: 0
XC energy: 0
XC energy: 0
XC energy: 0
XC energy: 0
XC energy: 0
 CONVERGED AT           7 ITERATIONS
XC energy: -17.5949
 Lio  E(H)  -151.426584030560     
 Lio  E(eV)  -4120.52876297116     
XC energy: -17.5949
 

hybrid: Energy Decomposition (eV):
Esiesta:      -4120.528763

hybrid: Atomic forces (eV/Ang):
     1    1.181207    0.160327    0.416244
     2   -0.451412    1.102781   -0.415467
     3   -1.641876    0.110185    1.053600
     4    0.915864   -1.365189   -1.053950
-------------------------------------------
 Tot    0.003783    0.008104    0.000428
-------------------------------------------
 Max    1.641876  free, atom      3
 Res    0.949476  sqrt( Sum f_i^2 / 3N )
-------------------------------------------
 Max    1.641876  cons, atom      3
 centrando sistema

hybrid:                 ==============================
                            Begin CG move =      3
                        ==============================
 nivel de optimizacion:            3
 doing SCF_in
 atoms QM, MM, totals           4           0           4
 doing SCF? T
 doing forces? T
Weights: 7701us.
Particion 0: 2532990
Particion 1: 2590320
Particion 2: 2755600
Relacion max / min = 1.087884
--> Thread OMP: 4
--> Thread CPU: 3
--> Thread GPU: 1
--> Correccion de cubos chicos: 250000
--> Puntos de separacion: 200
Timer functions: 1491us.
MM point charges: 0
XC energy: 0
XC energy: 0
XC energy: 0
XC energy: 0
XC energy: 0
XC energy: 0
XC energy: 0
XC energy: 0
 CONVERGED AT           8 ITERATIONS
XC energy: -17.5825
 Lio  E(H)  -151.424923520992     
 Lio  E(eV)  -4120.48357818752     
XC energy: -17.5825
 

hybrid: Energy Decomposition (eV):
Esiesta:      -4120.483578

hybrid: Atomic forces (eV/Ang):
     1    2.837391   -0.610464    2.132549
     2   -1.946308    2.144668   -2.131142
     3   -1.941941    0.100042   -0.299208
     4    1.057263   -1.629122    0.301120
-------------------------------------------
 Tot    0.006404    0.005125    0.003319
-------------------------------------------
 Max    2.837391  free, atom      1
 Res    1.674164  sqrt( Sum f_i^2 / 3N )
-------------------------------------------
 Max    2.837391  cons, atom      1
 centrando sistema

hybrid:                 ==============================
                            Begin CG move =      4
                        ==============================
 nivel de optimizacion:            3
 doing SCF_in
 atoms QM, MM, totals           4           0           4
 doing SCF? T
 doing forces? T
Weights: 2802us.
Particion 0: 2723800
Particion 1: 2586400
Particion 2: 2505420
Relacion max / min = 1.087163
--> Thread OMP: 4
--> Thread CPU: 3
--> Thread GPU: 1
--> Correccion de cubos chicos: 250000
--> Puntos de separacion: 200
Timer functions: 631us.
MM point charges: 0
XC energy: 0
XC energy: 0
XC energy: 0
XC energy: 0
XC energy: 0
XC energy: 0
XC energy: 0
XC energy: 0
 CONVERGED AT           8 ITERATIONS
XC energy: -17.5923
 Lio  E(H)  -151.426789814235     
 Lio  E(eV)  -4120.53436263224     
XC energy: -17.5923
 

hybrid: Energy Decomposition (eV):
Esiesta:      -4120.534363

hybrid: Atomic forces (eV/Ang):
     1    1.592976   -0.028684    0.911863
     2   -0.820828    1.363618   -0.910638
     3   -1.698849    0.094637    0.697068
     4    0.931264   -1.422347   -0.696833
-------------------------------------------
 Tot    0.004564    0.007224    0.001459
-------------------------------------------
 Max    1.698849  free, atom      3
 Res    1.060236  sqrt( Sum f_i^2 / 3N )
-------------------------------------------
 Max    1.698849  cons, atom      3

cgvc: Finished line minimization    2.  Mean atomic displacement =    0.0881
 centrando sistema

hybrid:                 ==============================
                            Begin CG move =      5
                        ==============================
 nivel de optimizacion:            3
 doing SCF_in
 atoms QM, MM, totals           4           0           4
 doing SCF? T
 doing forces? T
Weights: 5696us.
Particion 0: 2736880
Particion 1: 2586140
Particion 2: 2505560
Relacion max / min = 1.092323
--> Thread OMP: 4
--> Thread CPU: 3
--> Thread GPU: 1
--> Correccion de cubos chicos: 250000
--> Puntos de separacion: 200
Timer functions: 3025us.
MM point charges: 0
XC energy: 0
XC energy: 0
XC energy: 0
XC energy: 0
XC energy: 0
XC energy: 0
XC energy: 0
XC energy: 0
XC energy: 0
 CONVERGED AT           9 ITERATIONS
XC energy: -17.6709
 Lio  E(H)  -151.422871397672     
 Lio  E(eV)  -4120.42773704695     
XC energy: -17.6709
 

hybrid: Energy Decomposition (eV):
Esiesta:      -4120.427737

hybrid: Atomic forces (eV/Ang):
     1   -5.799725    0.204271    1.486079
     2    3.075066   -4.916699   -1.483314
     3    5.568410   -0.067841   -1.107821
     4   -2.840850    4.785641    1.106480
-------------------------------------------
 Tot    0.002902    0.005372    0.001425
-------------------------------------------
 Max    5.799725  free, atom      1
 Res    3.368398  sqrt( Sum f_i^2 / 3N )
-------------------------------------------
 Max    5.799725  cons, atom      1
 centrando sistema

hybrid:                 ==============================
                            Begin CG move =      6
                        ==============================
 nivel de optimizacion:            3
 doing SCF_in
 atoms QM, MM, totals           4           0           4
 doing SCF? T
 doing forces? T
Weights: 4935us.
Particion 0: 2716100
Particion 1: 2587120
Particion 2: 2505400
Relacion max / min = 1.084098
--> Thread OMP: 4
--> Thread CPU: 3
--> Thread GPU: 1
--> Correccion de cubos chicos: 250000
--> Puntos de separacion: 200
Timer functions: 3275us.
MM point charges: 0
XC energy: 0
XC energy: 0
XC energy: 0
XC energy: 0
XC energy: 0
XC energy: 0
XC energy: 0
XC energy: 0
 CONVERGED AT           8 ITERATIONS
XC energy: -17.6129
 Lio  E(H)  -151.427715541888     
 Lio  E(eV)  -4120.55955297412     
XC energy: -17.6129
 

hybrid: Energy Decomposition (eV):
Esiesta:      -4120.559553

hybrid: Atomic forces (eV/Ang):
     1   -0.079950    0.025235    0.997186
     2    0.062164   -0.057188   -0.995769
     3   -0.068531    0.063743    0.287875
     4    0.089456   -0.026402   -0.288359
-------------------------------------------
 Tot    0.003139    0.005388    0.000932
-------------------------------------------
 Max    0.997186  free, atom      1
 Res    0.426574  sqrt( Sum f_i^2 / 3N )
-------------------------------------------
 Max    0.997186  cons, atom      1

cgvc: Finished line minimization    3.  Mean atomic displacement =    0.0241
 centrando sistema

hybrid:                 ==============================
                            Begin CG move =      7
                        ==============================
 nivel de optimizacion:            3
 doing SCF_in
 atoms QM, MM, totals           4           0           4
 doing SCF? T
 doing forces? T
Weights: 2791us.
Particion 0: 2723580
Particion 1: 2587120
Particion 2: 2505400
Relacion max / min = 1.087084
--> Thread OMP: 4
--> Thread CPU: 3
--> Thread GPU: 1
--> Correccion de cubos chicos: 250000
--> Puntos de separacion: 200
Timer functions: 499us.
MM point charges: 0
XC energy: 0
XC energy: 0
XC energy: 0
XC energy: 0
XC energy: 0
XC energy: 0
XC energy: 0
XC energy: 0
 CONVERGED AT           8 ITERATIONS
XC energy: -17.6252
 Lio  E(H)  -151.427846507683     
 Lio  E(eV)  -4120.56311673625     
XC energy: -17.6252
 

hybrid: Energy Decomposition (eV):
Esiesta:      -4120.563117

hybrid: Atomic forces (eV/Ang):
     1    0.240797    0.004001   -0.721943
     2   -0.116562    0.214026    0.722828
     3   -0.413924    0.097663    0.268396
     4    0.292351   -0.309933   -0.269160
-------------------------------------------
 Tot    0.002662    0.005757    0.000121
-------------------------------------------
 Max    0.722828  free, atom      2
 Res    0.372822  sqrt( Sum f_i^2 / 3N )
-------------------------------------------
 Max    0.722828  cons, atom      2
 centrando sistema

hybrid:                 ==============================
                            Begin CG move =      8
                        ==============================
 nivel de optimizacion:            3
 doing SCF_in
 atoms QM, MM, totals           4           0           4
 doing SCF? T
 doing forces? T
Weights: 2742us.
Particion 0: 2716100
Particion 1: 2587120
Particion 2: 2505400
Relacion max / min = 1.084098
--> Thread OMP: 4
--> Thread CPU: 3
--> Thread GPU: 1
--> Correccion de cubos chicos: 250000
--> Puntos de separacion: 200
Timer functions: 632us.
MM point charges: 0
XC energy: 0
XC energy: 0
XC energy: 0
XC energy: 0
XC energy: 0
XC energy: 0
XC energy: 0
XC energy: 0
 CONVERGED AT           8 ITERATIONS
XC energy: -17.6206
 Lio  E(H)  -151.427924980000     
 Lio  E(eV)  -4120.56525207756     
XC energy: -17.6206
 

hybrid: Energy Decomposition (eV):
Esiesta:      -4120.565252

hybrid: Atomic forces (eV/Ang):
     1    0.124632    0.011717   -0.057140
     2   -0.051879    0.115736    0.058237
     3   -0.287660    0.084724    0.277062
     4    0.217738   -0.206582   -0.277757
-------------------------------------------
 Tot    0.002831    0.005597    0.000402
-------------------------------------------
 Max    0.287660  free, atom      3
 Res    0.176148  sqrt( Sum f_i^2 / 3N )
-------------------------------------------
 Max    0.287660  cons, atom      3

cgvc: Finished line minimization    4.  Mean atomic displacement =    0.0153
 centrando sistema

hybrid:                 ==============================
                            Begin CG move =      9
                        ==============================
 nivel de optimizacion:            3
 doing SCF_in
 atoms QM, MM, totals           4           0           4
 doing SCF? T
 doing forces? T
Weights: 2748us.
Particion 0: 2731940
Particion 1: 2587120
Particion 2: 2505400
Relacion max / min = 1.090421
--> Thread OMP: 4
--> Thread CPU: 3
--> Thread GPU: 1
--> Correccion de cubos chicos: 250000
--> Puntos de separacion: 200
Timer functions: 628us.
MM point charges: 0
XC energy: 0
XC energy: 0
XC energy: 0
XC energy: 0
XC energy: 0
XC energy: 0
XC energy: 0
XC energy: 0
 CONVERGED AT           8 ITERATIONS
XC energy: -17.6324
 Lio  E(H)  -151.427871675676     
 Lio  E(eV)  -4120.56380159250     
XC energy: -17.6324
 

hybrid: Energy Decomposition (eV):
Esiesta:      -4120.563802

hybrid: Atomic forces (eV/Ang):
     1   -0.858249    0.025177    0.015587
     2    0.453511   -0.732368   -0.015504
     3    0.709241    0.062651   -0.015652
     4   -0.302153    0.649396    0.015939
-------------------------------------------
 Tot    0.002349    0.004857    0.000371
-------------------------------------------
 Max    0.858249  free, atom      1
 Res    0.456454  sqrt( Sum f_i^2 / 3N )
-------------------------------------------
 Max    0.858249  cons, atom      1
 centrando sistema

hybrid:                 ==============================
                            Begin CG move =     10
                        ==============================
 nivel de optimizacion:            3
 doing SCF_in
 atoms QM, MM, totals           4           0           4
 doing SCF? T
 doing forces? T
Weights: 2734us.
Particion 0: 2721380
Particion 1: 2587120
Particion 2: 2505400
Relacion max / min = 1.086206
--> Thread OMP: 4
--> Thread CPU: 3
--> Thread GPU: 1
--> Correccion de cubos chicos: 250000
--> Puntos de separacion: 200
Timer functions: 614us.
MM point charges: 0
XC energy: 0
XC energy: 0
XC energy: 0
XC energy: 0
XC energy: 0
XC energy: 0
XC energy: 0
 CONVERGED AT           7 ITERATIONS
XC energy: -17.6251
 Lio  E(H)  -151.427958490631     
 Lio  E(eV)  -4120.56616394863     
XC energy: -17.6251
 

hybrid: Energy Decomposition (eV):
Esiesta:      -4120.566164

hybrid: Atomic forces (eV/Ang):
     1   -0.243641    0.017331   -0.030740
     2    0.137866   -0.201571    0.031501
     3    0.085598    0.076005    0.166699
     4    0.022797    0.113511   -0.167090
-------------------------------------------
 Tot    0.002620    0.005276    0.000369
-------------------------------------------
 Max    0.243641  free, atom      1
 Res    0.130209  sqrt( Sum f_i^2 / 3N )
-------------------------------------------
 Max    0.243641  cons, atom      1

cgvc: Finished line minimization    5.  Mean atomic displacement =    0.0059
 centrando sistema

hybrid:                 ==============================
                            Begin CG move =     11
                        ==============================
 nivel de optimizacion:            3
 doing SCF_in
 atoms QM, MM, totals           4           0           4
 doing SCF? T
 doing forces? T
Weights: 2753us.
Particion 0: 2726660
Particion 1: 2587120
Particion 2: 2505400
Relacion max / min = 1.088313
--> Thread OMP: 4
--> Thread CPU: 3
--> Thread GPU: 1
--> Correccion de cubos chicos: 250000
--> Puntos de separacion: 200
Timer functions: 506us.
MM point charges: 0
XC energy: 0
XC energy: 0
XC energy: 0
XC energy: 0
XC energy: 0
XC energy: 0
XC energy: 0
 CONVERGED AT           7 ITERATIONS
XC energy: -17.6252
 
    ╔════════════════════════════════════════════╗
    ║        ENERGY CONTRIBUTIONS IN A.U.        ║
    ╠══════════════════╦═════════════════════════╣
    ║   ONE ELECTRON   ║      -280.2539095       ║
    ╠══════════════════╬═════════════════════════╣
    ║   COULOMB        ║       110.1906949       ║
    ╠══════════════════╬═════════════════════════╣
    ║   NUCLEAR        ║        36.2604199       ║
    ╠══════════════════╬═════════════════════════╣
    ║   EXC. - CORR.   ║       -17.6251951       ║
    ╠══════════════════╬═════════════════════════╣
    ║   TOTAL          ║      -151.4279897       ║
    ╚══════════════════╩═════════════════════════╝
 
 Lio  E(H)  -151.427989749156     
 Lio  E(eV)  -4120.56701453672     
XC energy: -17.6252
 

hybrid: Energy Decomposition (eV):
Esiesta:      -4120.567015

hybrid: Atomic forces (eV/Ang):
     1   -0.132362   -0.022273   -0.038454
     2    0.048176   -0.125249    0.039117
     3    0.047667    0.073232    0.095394
     4    0.039239    0.079513   -0.095501
-------------------------------------------
 Tot    0.002720    0.005224    0.000556
-------------------------------------------
 Max    0.132362  free, atom      1
 Res    0.077862  sqrt( Sum f_i^2 / 3N )
-------------------------------------------
 Max    0.132362  cons, atom      1
 centrando sistema

hybrid:                 ==============================
                            Begin CG move =     12
                        ==============================
 nivel de optimizacion:            3
 doing SCF_in
 atoms QM, MM, totals           4           0           4
 doing SCF? T
 doing forces? T
Weights: 6245us.
Particion 0: 2731590
Particion 1: 2586440
Particion 2: 2505510
Relacion max / min = 1.090233
--> Thread OMP: 4
--> Thread CPU: 3
--> Thread GPU: 1
--> Correccion de cubos chicos: 250000
--> Puntos de separacion: 200
Timer functions: 3065us.
MM point charges: 0
XC energy: 0
XC energy: 0
XC energy: 0
XC energy: 0
XC energy: 0
XC energy: 0
XC energy: 0
 CONVERGED AT           7 ITERATIONS
XC energy: -17.6254
 Lio  E(H)  -151.428006064743     
 Lio  E(eV)  -4120.56745850662     
XC energy: -17.6254
 

hybrid: Energy Decomposition (eV):
Esiesta:      -4120.567459

hybrid: Atomic forces (eV/Ang):
     1    0.046202   -0.085671   -0.053179
     2   -0.095769   -0.002458    0.053748
     3   -0.014302    0.069284   -0.018764
     4    0.066771    0.024007    0.019063
-------------------------------------------
 Tot    0.002903    0.005161    0.000868
-------------------------------------------
 Max    0.095769  free, atom      2
 Res    0.054101  sqrt( Sum f_i^2 / 3N )
-------------------------------------------
 Max    0.095769  cons, atom      2
 centrando sistema

hybrid:                 ==============================
                            Begin CG move =     13
                        ==============================
 nivel de optimizacion:            3
 doing SCF_in
 atoms QM, MM, totals           4           0           4
 doing SCF? T
 doing forces? T
Weights: 7167us.
Particion 0: 2731950
Particion 1: 2587120
Particion 2: 2505430
Relacion max / min = 1.090412
--> Thread OMP: 4
--> Thread CPU: 3
--> Thread GPU: 1
--> Correccion de cubos chicos: 250000
--> Puntos de separacion: 200
Timer functions: 1890us.
MM point charges: 0
XC energy: 0
XC energy: 0
XC energy: 0
XC energy: 0
XC energy: 0
 CONVERGED AT           5 ITERATIONS
XC energy: -17.6253
 Lio  E(H)  -151.428004773349     
 Lio  E(eV)  -4120.56742336597     
XC energy: -17.6253
 

hybrid: Energy Decomposition (eV):
Esiesta:      -4120.567423

hybrid: Atomic forces (eV/Ang):
     1    0.026086   -0.078563   -0.051393
     2   -0.079635   -0.016209    0.051982
     3   -0.007215    0.069696   -0.005969
     4    0.063646    0.030243    0.006211
-------------------------------------------
 Tot    0.002882    0.005166    0.000832
-------------------------------------------
 Max    0.079635  free, atom      2
 Res    0.048947  sqrt( Sum f_i^2 / 3N )
-------------------------------------------
 Max    0.079635  cons, atom      2
 centrando sistema
  Econtribution          0.000000        -4120.567423            0.000000            0.000000            0.000000            0.000000        -4120.567423
<====== Deinitializing G2G ======>
>> End of run:  11-DEC-2017  16:09:10
HYBRID 1.1.17 -- [ MMxQM w/ LA ] (31 Ago 2005)
Architecture  : 
Compiler flags: ifort -w -O2 -mp
SERIAL version

hybrid: Running in serial mode
>> Start of run:  11-DEC-2017  16:11:17

                           ***********************       
                           *  WELCOME TO HYBRID  *       
                           ***********************       

reinit: Reading from standard input
************************** Dump of input data file ****************************
SystemName     cut5
SystemLabel    cut5
CenterMolecule T
NumberOfAtoms         4
NumberOfSpecies      2
NetCharge 0.0
FixSpin  T
TotalSpin 0.0
MD.MaxForceTol    0.04 eV/Ang
NumberOfSolventAtoms      0
%block ConstrainedOpt
nconstr 1
steps 99
type 2
kte 200
inicoord 1.470 fincoord  7.000
atoms 1 2
%endblock ConstrainedOpt
%block ChemicalSpeciesLabel
       1   8  O
       2   1  H
%endblock ChemicalSpeciesLabel
AtomicCoordinatesFormat  Ang
%block AtomicCoordinatesAndAtomicSpecies
   0.00000   0.00000   0.000000        1
   0.00000   0.00000   1.480000        1
   0.89567   0.00000  -0.316663        2
  -0.44783   0.77567   1.796667        2
%endblock AtomicCoordinatesAndAtomicSpecies
%block SoluteAtomTypes
  OH  O1    AOX
  OH  O2    AOX
  HO  H1    AOX
  HO  H2    AOX
%endblock SoluteAtomTypes
PAO.BasisType split
PAO.BasisSize       DZP
PAO.EnergyShift      25 meV
PAO.SplitNorm       0.15
WriteMDXmol F
WriteMullikenPop 0
XC.functional       GGA
XC.authors          PBE
MeshCutoff         150.0 Ry
SpinPolarized        T
MaxSCFIterations    80
DM.MixingWeight      0.1
DM.NumberPulay       3
DM.UseSaveDM   T
MD.USeSaveXV   T
MD.UseSaveCG   T
LongOutput    F
MD.TypeOfRun    CG
MD.NumCGsteps   500
%block CutOffRadius
QM  0.2
QMMM 100.0
MM 80.0
BLO 80.0
%endblock CutOffRadius
%block SolventInput
%endblock SolventInput
************************** End of input data file *****************************

reinit: -----------------------------------------------------------------------
reinit: System Name: cut5                                                       
reinit: -----------------------------------------------------------------------
reinit: System Label: cut5                
reinit: -----------------------------------------------------------------------

hybrid: Running with no MM atoms
 
read:***********************************************************************
read: Atomic-coordinates input format  =     Cartesian coordinates (in Ang)
read: Total number of electrons        =    18
read: Dynamics option                  =     CG coord. optimization
read: Use continuation files for CG    =     T
read: Use continuation files for XV    =     T
read: Maximum number of CG moves       =   500
read: Max atomic displ per move        =     0.2000  Bohr
read: Force tolerance                  =     0.0016  Ry/Bohr
read: Write coordinates each           =     1  steps
read: Mulliken population analysis     =     0
read: MM x QM steps                    =     1
read: Write forces QM-MM               =     1
read: ***********************************************************************
 buscando cut5.XV                          

ioxv: Reading coordinates and velocities from file
<====== Initializing G2G ======>
GPU Device used: GeForce GTX 580
Kernels: gpu
Kernels: cpu
Using 3 CPU Threads and 1 GPU Threads
 JOB STARTED NOW
lun dic 11 16:11:17 -03 2017
basis set corresponding to Z   6 was not used
basis set corresponding to Z   7 was not used
basis set corresponding to Z  17 was not used
basis set corresponding to Z  26 was not used
basis set corresponding to Z  16 was not used
<======= GPU Code Initialization ========>
atoms: 4
max atoms: 4
number of gaussians: 34
do_forces: false
s: 10 p: 4 d: 2
m: 34 nco: 9
 nco: 9
density basis: s: 22 p: 6 d: 6
density basis: m: 76
Using device 0 for analytic integral calculations

hybrid: unit cell vectors (Ang) from siesta run:
        0.000000    0.000000    0.000000
        0.000000    0.000000    0.000000
        0.000000    0.000000    0.000000

constr opt: Starting a Constrained  optimization run
 
*******************************
  Constrained Step :     1
*******************************

hybrid:                 ==============================
                            Begin CG move =      0
                        ==============================
 nivel de optimizacion:            3
 defino cuts 
 doing SCF_in
 atoms QM, MM, totals           4           0           4
 doing SCF? T
 doing forces? T
Weights: 144951us.
Particion 0: 2731950
Particion 1: 2587120
Particion 2: 2505430
Relacion max / min = 1.090412
--> Thread OMP: 4
--> Thread CPU: 3
--> Thread GPU: 1
--> Correccion de cubos chicos: 250000
--> Puntos de separacion: 200
Timer functions: 4833us.
MM point charges: 0
XC energy: 0
XC energy: 0
XC energy: 0
XC energy: 0
XC energy: 0
XC energy: 0
XC energy: 0
XC energy: 0
XC energy: 0
XC energy: 0
XC energy: 0
XC energy: 0
 CONVERGED AT          12 ITERATIONS
XC energy: -17.6253
 
    ╔════════════════════════════════════════════╗
    ║        ENERGY CONTRIBUTIONS IN A.U.        ║
    ╠══════════════════╦═════════════════════════╣
    ║   ONE ELECTRON   ║      -280.2724397       ║
    ╠══════════════════╬═════════════════════════╣
    ║   COULOMB        ║       110.1990833       ║
    ╠══════════════════╬═════════════════════════╣
    ║   NUCLEAR        ║        36.2706892       ║
    ╠══════════════════╬═════════════════════════╣
    ║   EXC. - CORR.   ║       -17.6253410       ║
    ╠══════════════════╬═════════════════════════╣
    ║   TOTAL          ║      -151.4280082       ║
    ╚══════════════════╩═════════════════════════╝
 
 Lio  E(H)  -151.428008211502     
 Lio  E(eV)  -4120.56751692292     
XC energy: -17.6253

constr opt: variable constraint
icosntr  :   1
type     :   2
atoms    :   1   2
constant : 200.000
steps    :  99
initial  :   1.470
final    :   7.000
targeted :   1.470
actual   :   1.473
 

hybrid: Energy Decomposition (eV):
Esiesta:      -4120.567517

hybrid: Total Free Atoms:      4

hybrid: Atomic forces (eV/Ang):
     1    0.029994   -0.080781   -0.005236
     2   -0.083480   -0.014005    0.005825
     3   -0.007268    0.069696   -0.005965
     4    0.063636    0.030257    0.006208
-------------------------------------------
 Tot    0.002882    0.005166    0.000832
-------------------------------------------
 Max    0.083480  free, atom      2
 Res    0.045278  sqrt( Sum f_i^2 / 3N )
-------------------------------------------
 Max    0.083480  cons, atom      2

iocg: Reading CG continuation file

cgvc: Finished line minimization    6.  Mean atomic displacement =    0.1000
 centrando sistema

hybrid:                 ==============================
                            Begin CG move =      1
                        ==============================
 nivel de optimizacion:            3
 doing SCF_in
 atoms QM, MM, totals           4           0           4
 doing SCF? T
 doing forces? T
Weights: 2950us.
Particion 0: 2998960
Particion 1: 2931980
Particion 2: 2762420
Relacion max / min = 1.085628
--> Thread OMP: 4
--> Thread CPU: 3
--> Thread GPU: 1
--> Correccion de cubos chicos: 250000
--> Puntos de separacion: 200
Timer functions: 884us.
MM point charges: 0
XC energy: 0
XC energy: 0
XC energy: 0
XC energy: 0
XC energy: 0
XC energy: 0
XC energy: 0
XC energy: 0
 CONVERGED AT           8 ITERATIONS
XC energy: -17.6384
 Lio  E(H)  -151.426687271120     
 Lio  E(eV)  -4120.53157229094     
XC energy: -17.6384
 

hybrid: Energy Decomposition (eV):
Esiesta:      -4120.531572

hybrid: Atomic forces (eV/Ang):
     1   -2.820062    0.161921    0.848935
     2    1.501050   -2.249499   -0.817757
     3    2.206363    0.197034    0.152394
     4   -0.884217    1.898041   -0.182988
-------------------------------------------
 Tot    0.003134    0.007497    0.000584
-------------------------------------------
 Max    2.820062  free, atom      1
 Res    1.472802  sqrt( Sum f_i^2 / 3N )
-------------------------------------------
 Max    2.820062  cons, atom      1
 centrando sistema

hybrid:                 ==============================
                            Begin CG move =      2
                        ==============================
 nivel de optimizacion:            3
 doing SCF_in
 atoms QM, MM, totals           4           0           4
 doing SCF? T
 doing forces? T
Weights: 13027us.
Particion 0: 3011790
Particion 1: 3155500
Particion 2: 3010690
Relacion max / min = 1.048099
--> Thread OMP: 4
--> Thread CPU: 3
--> Thread GPU: 1
--> Correccion de cubos chicos: 250000
--> Puntos de separacion: 200
Timer functions: 2278us.
MM point charges: 0
XC energy: 0
XC energy: 0
XC energy: 0
XC energy: 0
XC energy: 0
XC energy: 0
XC energy: 0
XC energy: 0
 CONVERGED AT           8 ITERATIONS
XC energy: -17.6273
 Lio  E(H)  -151.428016653516     
 Lio  E(eV)  -4120.56774664191     
XC energy: -17.6273
 

hybrid: Energy Decomposition (eV):
Esiesta:      -4120.567747

hybrid: Atomic forces (eV/Ang):
     1   -0.317448   -0.027685    0.088193
     2    0.129708   -0.277716   -0.084618
     3    0.264533    0.060525    0.010136
     4   -0.074224    0.250210   -0.013011
-------------------------------------------
 Tot    0.002568    0.005336    0.000699
-------------------------------------------
 Max    0.317448  free, atom      1
 Res    0.171380  sqrt( Sum f_i^2 / 3N )
-------------------------------------------
 Max    0.317448  cons, atom      1

cgvc: Finished line minimization    1.  Mean atomic displacement =    0.0108
 centrando sistema

hybrid:                 ==============================
                            Begin CG move =      3
                        ==============================
 nivel de optimizacion:            3
 doing SCF_in
 atoms QM, MM, totals           4           0           4
 doing SCF? T
 doing forces? T
Weights: 8239us.
Particion 0: 3011790
Particion 1: 3153020
Particion 2: 3010570
Relacion max / min = 1.047317
--> Thread OMP: 4
--> Thread CPU: 3
--> Thread GPU: 1
--> Correccion de cubos chicos: 250000
--> Puntos de separacion: 200
Timer functions: 2590us.
MM point charges: 0
XC energy: 0
XC energy: 0
XC energy: 0
XC energy: 0
XC energy: 0
XC energy: 0
XC energy: 0
 CONVERGED AT           7 ITERATIONS
XC energy: -17.627
 Lio  E(H)  -151.428030116767     
 Lio  E(eV)  -4120.56811299577     
XC energy: -17.627
 

hybrid: Energy Decomposition (eV):
Esiesta:      -4120.568113

hybrid: Atomic forces (eV/Ang):
     1   -0.359579    0.005005    0.065577
     2    0.178184   -0.296668   -0.061525
     3    0.258482    0.056116    0.062659
     4   -0.074640    0.241251   -0.066092
-------------------------------------------
 Tot    0.002447    0.005704    0.000619
-------------------------------------------
 Max    0.359579  free, atom      1
 Res    0.182391  sqrt( Sum f_i^2 / 3N )
-------------------------------------------
 Max    0.359579  cons, atom      1
 centrando sistema

hybrid:                 ==============================
                            Begin CG move =      4
                        ==============================
 nivel de optimizacion:            3
 doing SCF_in
 atoms QM, MM, totals           4           0           4
 doing SCF? T
 doing forces? T
Weights: 3159us.
Particion 0: 2520390
Particion 1: 2348980
Particion 2: 2508530
Relacion max / min = 1.072972
--> Thread OMP: 4
--> Thread CPU: 3
--> Thread GPU: 1
--> Correccion de cubos chicos: 250000
--> Puntos de separacion: 200
Timer functions: 464us.
MM point charges: 0
XC energy: 0
XC energy: 0
XC energy: 0
XC energy: 0
XC energy: 0
XC energy: 0
XC energy: 0
XC energy: 0
 CONVERGED AT           8 ITERATIONS
XC energy: -17.6263
 Lio  E(H)  -151.428029791494     
 Lio  E(eV)  -4120.56810414465     
XC energy: -17.6263
 

hybrid: Energy Decomposition (eV):
Esiesta:      -4120.568104

hybrid: Atomic forces (eV/Ang):
     1   -0.399452    0.056680    0.025833
     2    0.241560   -0.303546   -0.021014
     3    0.225127    0.047494    0.149558
     4   -0.064881    0.205717   -0.153850
-------------------------------------------
 Tot    0.002353    0.006345    0.000527
-------------------------------------------
 Max    0.399452  free, atom      1
 Res    0.195763  sqrt( Sum f_i^2 / 3N )
-------------------------------------------
 Max    0.399452  cons, atom      1
 centrando sistema

hybrid:                 ==============================
                            Begin CG move =      5
                        ==============================
 nivel de optimizacion:            3
 doing SCF_in
 atoms QM, MM, totals           4           0           4
 doing SCF? T
 doing forces? T
Weights: 14642us.
Particion 0: 2537170
Particion 1: 2587360
Particion 2: 2755410
Relacion max / min = 1.086017
--> Thread OMP: 4
--> Thread CPU: 3
--> Thread GPU: 1
--> Correccion de cubos chicos: 250000
--> Puntos de separacion: 200
Timer functions: 1544us.
MM point charges: 0
XC energy: 0
XC energy: 0
XC energy: 0
XC energy: 0
XC energy: 0
XC energy: 0
XC energy: 0
 CONVERGED AT           7 ITERATIONS
XC energy: -17.6267
 Lio  E(H)  -151.428032672845     
 Lio  E(eV)  -4120.56818255023     
XC energy: -17.6267
 

hybrid: Energy Decomposition (eV):
Esiesta:      -4120.568183

hybrid: Atomic forces (eV/Ang):
     1   -0.384428    0.031639    0.045684
     2    0.212872   -0.303733   -0.041184
     3    0.245021    0.051992    0.106960
     4   -0.071084    0.226130   -0.110894
-------------------------------------------
 Tot    0.002381    0.006028    0.000566
-------------------------------------------
 Max    0.384428  free, atom      1
 Res    0.189913  sqrt( Sum f_i^2 / 3N )
-------------------------------------------
 Max    0.384428  cons, atom      1

cgvc: Finished line minimization    2.  Mean atomic displacement =    0.0196
 centrando sistema

hybrid:                 ==============================
                            Begin CG move =      6
                        ==============================
 nivel de optimizacion:            3
 doing SCF_in
 atoms QM, MM, totals           4           0           4
 doing SCF? T
 doing forces? T
Weights: 7319us.
Particion 0: 2969480
Particion 1: 2929440
Particion 2: 2762940
Relacion max / min = 1.074754
--> Thread OMP: 4
--> Thread CPU: 3
--> Thread GPU: 1
--> Correccion de cubos chicos: 250000
--> Puntos de separacion: 200
Timer functions: 1187us.
MM point charges: 0
XC energy: 0
XC energy: 0
XC energy: 0
XC energy: 0
XC energy: 0
XC energy: 0
XC energy: 0
XC energy: 0
 CONVERGED AT           8 ITERATIONS
XC energy: -17.614
 Lio  E(H)  -151.427761392818     
 Lio  E(eV)  -4120.56080064196     
XC energy: -17.614
 

hybrid: Energy Decomposition (eV):
Esiesta:      -4120.560801

hybrid: Atomic forces (eV/Ang):
     1    1.248501   -0.019385   -0.422804
     2   -0.617414    1.026019    0.412531
     3   -1.216675    0.006119    0.271464
     4    0.589185   -1.005019   -0.260111
-------------------------------------------
 Tot    0.003598    0.007735    0.001080
-------------------------------------------
 Max    1.248501  free, atom      1
 Res    0.725768  sqrt( Sum f_i^2 / 3N )
-------------------------------------------
 Max    1.248501  cons, atom      1
 centrando sistema

hybrid:                 ==============================
                            Begin CG move =      7
                        ==============================
 nivel de optimizacion:            3
 doing SCF_in
 atoms QM, MM, totals           4           0           4
 doing SCF? T
 doing forces? T
Weights: 5953us.
Particion 0: 2537170
Particion 1: 2587360
Particion 2: 2755410
Relacion max / min = 1.086017
--> Thread OMP: 4
--> Thread CPU: 3
--> Thread GPU: 1
--> Correccion de cubos chicos: 250000
--> Puntos de separacion: 200
Timer functions: 3242us.
MM point charges: 0
XC energy: 0
XC energy: 0
XC energy: 0
XC energy: 0
XC energy: 0
XC energy: 0
XC energy: 0
XC energy: 0
 CONVERGED AT           8 ITERATIONS
XC energy: -17.6238
 Lio  E(H)  -151.428055522014     
 Lio  E(eV)  -4120.56880430801     
XC energy: -17.6238
 

hybrid: Energy Decomposition (eV):
Esiesta:      -4120.568804

hybrid: Atomic forces (eV/Ang):
     1   -0.000114    0.017296   -0.065384
     2    0.015990    0.007392    0.066150
     3   -0.099926    0.044008    0.148386
     4    0.086638   -0.062342   -0.148483
-------------------------------------------
 Tot    0.002590    0.006354    0.000668
-------------------------------------------
 Max    0.148483  free, atom      4
 Res    0.079917  sqrt( Sum f_i^2 / 3N )
-------------------------------------------
 Max    0.148483  cons, atom      4

cgvc: Finished line minimization    3.  Mean atomic displacement =    0.0044
 centrando sistema

hybrid:                 ==============================
                            Begin CG move =      8
                        ==============================
 nivel de optimizacion:            3
 doing SCF_in
 atoms QM, MM, totals           4           0           4
 doing SCF? T
 doing forces? T
Weights: 10550us.
Particion 0: 2515120
Particion 1: 2347690
Particion 2: 2508890
Relacion max / min = 1.071317
--> Thread OMP: 4
--> Thread CPU: 3
--> Thread GPU: 1
--> Correccion de cubos chicos: 250000
--> Puntos de separacion: 200
Timer functions: 3207us.
MM point charges: 0
XC energy: 0
XC energy: 0
XC energy: 0
XC energy: 0
XC energy: 0
XC energy: 0
XC energy: 0
 CONVERGED AT           7 ITERATIONS
XC energy: -17.6234
 Lio  E(H)  -151.428072943326     
 Lio  E(eV)  -4120.56927836622     
XC energy: -17.6234
 

hybrid: Energy Decomposition (eV):
Esiesta:      -4120.569278

hybrid: Atomic forces (eV/Ang):
     1    0.036553   -0.007337    0.061906
     2   -0.022193    0.023972   -0.061995
     3   -0.085189    0.039065    0.096315
     4    0.073511   -0.049374   -0.095332
-------------------------------------------
 Tot    0.002683    0.006325    0.000894
-------------------------------------------
 Max    0.096315  free, atom      3
 Res    0.061320  sqrt( Sum f_i^2 / 3N )
-------------------------------------------
 Max    0.096315  cons, atom      3
 centrando sistema

hybrid:                 ==============================
                            Begin CG move =      9
                        ==============================
 nivel de optimizacion:            3
 doing SCF_in
 atoms QM, MM, totals           4           0           4
 doing SCF? T
 doing forces? T
Weights: 4489us.
Particion 0: 2509850
Particion 1: 2347540
Particion 2: 2508790
Relacion max / min = 1.069140
--> Thread OMP: 4
--> Thread CPU: 3
--> Thread GPU: 1
--> Correccion de cubos chicos: 250000
--> Puntos de separacion: 200
Timer functions: 604us.
MM point charges: 0
XC energy: 0
XC energy: 0
XC energy: 0
XC energy: 0
XC energy: 0
XC energy: 0
XC energy: 0
 CONVERGED AT           7 ITERATIONS
XC energy: -17.6228
 Lio  E(H)  -151.428080820975     
 Lio  E(eV)  -4120.56949272806     
XC energy: -17.6228
 

hybrid: Energy Decomposition (eV):
Esiesta:      -4120.569493

hybrid: Atomic forces (eV/Ang):
     1    0.096302   -0.046798    0.262382
     2   -0.083921    0.051425   -0.263798
     3   -0.063248    0.031542    0.014117
     4    0.053702   -0.029882   -0.011437
-------------------------------------------
 Tot    0.002836    0.006287    0.001263
-------------------------------------------
 Max    0.263798  free, atom      2
 Res    0.118563  sqrt( Sum f_i^2 / 3N )
-------------------------------------------
 Max    0.263798  cons, atom      2
 centrando sistema

hybrid:                 ==============================
                            Begin CG move =     10
                        ==============================
 nivel de optimizacion:            3
 doing SCF_in
 atoms QM, MM, totals           4           0           4
 doing SCF? T
 doing forces? T
Weights: 35925us.
Particion 0: 2509850
Particion 1: 2347540
Particion 2: 2508790
Relacion max / min = 1.069140
--> Thread OMP: 4
--> Thread CPU: 3
--> Thread GPU: 1
--> Correccion de cubos chicos: 250000
--> Puntos de separacion: 200
Timer functions: 451us.
MM point charges: 0
XC energy: 0
XC energy: 0
XC energy: 0
XC energy: 0
XC energy: 0
XC energy: 0
 CONVERGED AT           6 ITERATIONS
XC energy: -17.6231
 Lio  E(H)  -151.428081005970     
 Lio  E(eV)  -4120.56949776203     
XC energy: -17.6231
 

hybrid: Energy Decomposition (eV):
Esiesta:      -4120.569498

hybrid: Atomic forces (eV/Ang):
     1    0.070348   -0.029709    0.176023
     2   -0.057106    0.039391   -0.176873
     3   -0.072574    0.034746    0.049546
     4    0.062102   -0.038126   -0.047594
-------------------------------------------
 Tot    0.002770    0.006302    0.001102
-------------------------------------------
 Max    0.176873  free, atom      2
 Res    0.086322  sqrt( Sum f_i^2 / 3N )
-------------------------------------------
 Max    0.176873  cons, atom      2

cgvc: Finished line minimization    4.  Mean atomic displacement =    0.0085
 centrando sistema

hybrid:                 ==============================
                            Begin CG move =     11
                        ==============================
 nivel de optimizacion:            3
 doing SCF_in
 atoms QM, MM, totals           4           0           4
 doing SCF? T
 doing forces? T
Weights: 3163us.
Particion 0: 2515130
Particion 1: 2347540
Particion 2: 2508790
Relacion max / min = 1.071390
--> Thread OMP: 4
--> Thread CPU: 3
--> Thread GPU: 1
--> Correccion de cubos chicos: 250000
--> Puntos de separacion: 200
Timer functions: 1022us.
MM point charges: 0
XC energy: 0
XC energy: 0
XC energy: 0
XC energy: 0
XC energy: 0
XC energy: 0
XC energy: 0
 CONVERGED AT           7 ITERATIONS
XC energy: -17.6274
 
    ╔════════════════════════════════════════════╗
    ║        ENERGY CONTRIBUTIONS IN A.U.        ║
    ╠══════════════════╦═════════════════════════╣
    ║   ONE ELECTRON   ║      -280.3788949       ║
    ╠══════════════════╬═════════════════════════╣
    ║   COULOMB        ║       110.2496112       ║
    ╠══════════════════╬═════════════════════════╣
    ║   NUCLEAR        ║        36.3285952       ║
    ╠══════════════════╬═════════════════════════╣
    ║   EXC. - CORR.   ║       -17.6273927       ║
    ╠══════════════════╬═════════════════════════╣
    ║   TOTAL          ║      -151.4280812       ║
    ╚══════════════════╩═════════════════════════╝
 
 Lio  E(H)  -151.428081241465     
 Lio  E(eV)  -4120.56950417019     
XC energy: -17.6274
 

hybrid: Energy Decomposition (eV):
Esiesta:      -4120.569504

hybrid: Atomic forces (eV/Ang):
     1   -0.110113   -0.049141   -0.075736
     2    0.004875   -0.103373    0.079831
     3    0.135898    0.037192   -0.058420
     4   -0.028052    0.121521    0.055529
-------------------------------------------
 Tot    0.002608    0.006199    0.001203
-------------------------------------------
 Max    0.135898  free, atom      3
 Res    0.081272  sqrt( Sum f_i^2 / 3N )
-------------------------------------------
 Max    0.135898  cons, atom      3
 centrando sistema

hybrid:                 ==============================
                            Begin CG move =     12
                        ==============================
 nivel de optimizacion:            3
 doing SCF_in
 atoms QM, MM, totals           4           0           4
 doing SCF? T
 doing forces? T
Weights: 6239us.
Particion 0: 2515130
Particion 1: 2347540
Particion 2: 2508790
Relacion max / min = 1.071390
--> Thread OMP: 4
--> Thread CPU: 3
--> Thread GPU: 1
--> Correccion de cubos chicos: 250000
--> Puntos de separacion: 200
Timer functions: 3262us.
MM point charges: 0
XC energy: 0
XC energy: 0
XC energy: 0
XC energy: 0
XC energy: 0
XC energy: 0
XC energy: 0
 CONVERGED AT           7 ITERATIONS
XC energy: -17.6257
 Lio  E(H)  -151.428085036638     
 Lio  E(eV)  -4120.56960744215     
XC energy: -17.6257
 

hybrid: Energy Decomposition (eV):
Esiesta:      -4120.569607

hybrid: Atomic forces (eV/Ang):
     1   -0.040622   -0.041436    0.021862
     2   -0.018832   -0.048276   -0.019687
     3    0.055562    0.036056   -0.016795
     4    0.006562    0.059887    0.015763
-------------------------------------------
 Tot    0.002670    0.006231    0.001143
-------------------------------------------
 Max    0.059887  free, atom      4
 Res    0.035899  sqrt( Sum f_i^2 / 3N )
-------------------------------------------
 Max    0.059887  cons, atom      4
 centrando sistema
  Econtribution          1.471764        -4120.569607            0.000000            0.000000            0.000000            0.000000        -4120.569607
 
constr opt: Optimized Reaction Coordinate
Reaction Coordinate (Ang) :    1.47176
Total Energy (eV) :  -4120.56961
 
*******************************
  Constrained Step :     2
*******************************

hybrid:                 ==============================
                            Begin CG move =      0
                        ==============================
 nivel de optimizacion:            3
 defino cuts 
 doing SCF_in
 atoms QM, MM, totals           4           0           4
 doing SCF? T
 doing forces? T
Weights: 7942us.
Particion 0: 2515130
Particion 1: 2347540
Particion 2: 2508790
Relacion max / min = 1.071390
--> Thread OMP: 4
--> Thread CPU: 3
--> Thread GPU: 1
--> Correccion de cubos chicos: 250000
--> Puntos de separacion: 200
Timer functions: 1141us.
MM point charges: 0
XC energy: 0
XC energy: 0
 CONVERGED AT           2 ITERATIONS
XC energy: -17.6257
 Lio  E(H)  -151.428085627990     
 Lio  E(eV)  -4120.56962353367     
XC energy: -17.6257

constr opt: variable constraint
icosntr  :   1
targeted :   1.526
actual   :   1.472
 

hybrid: Energy Decomposition (eV):
Esiesta:      -4120.569624

hybrid: Atomic forces (eV/Ang):
     1   -0.111634   -0.000803   -0.943578
     2    0.052194   -0.088906    0.945751
     3    0.055546    0.036056   -0.016791
     4    0.006565    0.059883    0.015762
-------------------------------------------
 Tot    0.002670    0.006231    0.001143
-------------------------------------------
 Max    0.945751  free, atom      2
 Res    0.389061  sqrt( Sum f_i^2 / 3N )
-------------------------------------------
 Max    0.945751  cons, atom      2

cgvc: Finished line minimization    5.  Mean atomic displacement =    0.1000
 centrando sistema

hybrid:                 ==============================
                            Begin CG move =      1
                        ==============================
 nivel de optimizacion:            3
 doing SCF_in
 atoms QM, MM, totals           4           0           4
 doing SCF? T
 doing forces? T
Weights: 2883us.
Particion 0: 2586890
Particion 1: 2587260
Particion 2: 2759710
Relacion max / min = 1.066806
--> Thread OMP: 4
--> Thread CPU: 3
--> Thread GPU: 1
--> Correccion de cubos chicos: 250000
--> Puntos de separacion: 200
Timer functions: 547us.
MM point charges: 0
XC energy: 0
XC energy: 0
XC energy: 0
XC energy: 0
XC energy: 0
XC energy: 0
XC energy: 0
XC energy: 0
XC energy: 0
 CONVERGED AT           9 ITERATIONS
XC energy: -17.5718
 Lio  E(H)  -151.420283274081     
 Lio  E(eV)  -4120.35731059067     
XC energy: -17.5718
 

hybrid: Energy Decomposition (eV):
Esiesta:      -4120.357311

hybrid: Atomic forces (eV/Ang):
     1    0.188338   -0.261409    6.703823
     2   -0.274233   -0.072443   -6.718703
     3    0.363549   -0.044658   -0.123060
     4   -0.272549    0.386050    0.141473
-------------------------------------------
 Tot    0.005105    0.007540    0.003533
-------------------------------------------
 Max    6.718703  free, atom      2
 Res    2.748622  sqrt( Sum f_i^2 / 3N )
-------------------------------------------
 Max    6.718703  cons, atom      2
 centrando sistema

hybrid:                 ==============================
                            Begin CG move =      2
                        ==============================
 nivel de optimizacion:            3
 doing SCF_in
 atoms QM, MM, totals           4           0           4
 doing SCF? T
 doing forces? T
Weights: 5677us.
Particion 0: 2515130
Particion 1: 2348830
Particion 2: 2508420
Relacion max / min = 1.070801
--> Thread OMP: 4
--> Thread CPU: 3
--> Thread GPU: 1
--> Correccion de cubos chicos: 250000
--> Puntos de separacion: 200
Timer functions: 2670us.
MM point charges: 0
XC energy: 0
XC energy: 0
XC energy: 0
XC energy: 0
XC energy: 0
XC energy: 0
XC energy: 0
XC energy: 0
XC energy: 0
 CONVERGED AT           9 ITERATIONS
XC energy: -17.6181
 Lio  E(H)  -151.427952996431     
 Lio  E(eV)  -4120.56601444376     
XC energy: -17.6181
 

hybrid: Energy Decomposition (eV):
Esiesta:      -4120.566014

hybrid: Atomic forces (eV/Ang):
     1   -0.085951   -0.035565    0.271706
     2    0.015033   -0.098241   -0.272028
     3    0.116532    0.022224   -0.030604
     4   -0.042553    0.117725    0.032793
-------------------------------------------
 Tot    0.003061    0.006142    0.001867
-------------------------------------------
 Max    0.272028  free, atom      2
 Res    0.128488  sqrt( Sum f_i^2 / 3N )
-------------------------------------------
 Max    0.272028  cons, atom      2

cgvc: Finished line minimization    1.  Mean atomic displacement =    0.0125
 centrando sistema

hybrid:                 ==============================
                            Begin CG move =      3
                        ==============================
 nivel de optimizacion:            3
 doing SCF_in
 atoms QM, MM, totals           4           0           4
 doing SCF? T
 doing forces? T
Weights: 2786us.
Particion 0: 2537170
Particion 1: 2587060
Particion 2: 2755470
Relacion max / min = 1.086041
--> Thread OMP: 4
--> Thread CPU: 3
--> Thread GPU: 1
--> Correccion de cubos chicos: 250000
--> Puntos de separacion: 200
Timer functions: 658us.
MM point charges: 0
XC energy: 0
XC energy: 0
XC energy: 0
XC energy: 0
XC energy: 0
XC energy: 0
XC energy: 0
XC energy: 0
 CONVERGED AT           8 ITERATIONS
XC energy: -17.6056
 Lio  E(H)  -151.427656265044     
 Lio  E(eV)  -4120.55793996843     
XC energy: -17.6056
 

hybrid: Energy Decomposition (eV):
Esiesta:      -4120.557940

hybrid: Atomic forces (eV/Ang):
     1    0.968409   -0.060826    0.500024
     2   -0.547927    0.827253   -0.495062
     3   -0.837135   -0.009812    0.117274
     4    0.420685   -0.749405   -0.119942
-------------------------------------------
 Tot    0.004033    0.007210    0.002293
-------------------------------------------
 Max    0.968409  free, atom      1
 Res    0.569269  sqrt( Sum f_i^2 / 3N )
-------------------------------------------
 Max    0.968409  cons, atom      1
 centrando sistema

hybrid:                 ==============================
                            Begin CG move =      4
                        ==============================
 nivel de optimizacion:            3
 doing SCF_in
 atoms QM, MM, totals           4           0           4
 doing SCF? T
 doing forces? T
Weights: 2859us.
Particion 0: 2515130
Particion 1: 2348830
Particion 2: 2508420
Relacion max / min = 1.070801
--> Thread OMP: 4
--> Thread CPU: 3
--> Thread GPU: 1
--> Correccion de cubos chicos: 250000
--> Puntos de separacion: 200
Timer functions: 444us.
MM point charges: 0
XC energy: 0
XC energy: 0
XC energy: 0
XC energy: 0
XC energy: 0
XC energy: 0
XC energy: 0
XC energy: 0
 CONVERGED AT           8 ITERATIONS
XC energy: -17.6177
 Lio  E(H)  -151.427950141913     
 Lio  E(eV)  -4120.56593676833     
XC energy: -17.6177
 

hybrid: Energy Decomposition (eV):
Esiesta:      -4120.565937

hybrid: Atomic forces (eV/Ang):
     1   -0.050663   -0.036439    0.278915
     2   -0.003854   -0.067247   -0.279047
     3    0.084519    0.021231   -0.025486
     4   -0.026914    0.088628    0.027498
-------------------------------------------
 Tot    0.003088    0.006173    0.001880
-------------------------------------------
 Max    0.279047  free, atom      2
 Res    0.123042  sqrt( Sum f_i^2 / 3N )
-------------------------------------------
 Max    0.279047  cons, atom      2

cgvc: Finished line minimization    2.  Mean atomic displacement =    0.0004
 centrando sistema

hybrid:                 ==============================
                            Begin CG move =      5
                        ==============================
 nivel de optimizacion:            3
 doing SCF_in
 atoms QM, MM, totals           4           0           4
 doing SCF? T
 doing forces? T
Weights: 2759us.
Particion 0: 2515130
Particion 1: 2348830
Particion 2: 2508420
Relacion max / min = 1.070801
--> Thread OMP: 4
--> Thread CPU: 3
--> Thread GPU: 1
--> Correccion de cubos chicos: 250000
--> Puntos de separacion: 200
Timer functions: 512us.
MM point charges: 0
XC energy: 0
XC energy: 0
XC energy: 0
XC energy: 0
XC energy: 0
 CONVERGED AT           5 ITERATIONS
XC energy: -17.6178
 Lio  E(H)  -151.427960207744     
 Lio  E(eV)  -4120.56621067365     
XC energy: -17.6178
 

hybrid: Energy Decomposition (eV):
Esiesta:      -4120.566211

hybrid: Atomic forces (eV/Ang):
     1   -0.033825   -0.035506    0.239496
     2   -0.011891   -0.051315   -0.239437
     3    0.066067    0.021197   -0.022199
     4   -0.017262    0.071815    0.024001
-------------------------------------------
 Tot    0.003088    0.006191    0.001861
-------------------------------------------
 Max    0.239496  free, atom      1
 Res    0.104565  sqrt( Sum f_i^2 / 3N )
-------------------------------------------
 Max    0.239496  cons, atom      1
 centrando sistema

hybrid:                 ==============================
                            Begin CG move =      6
                        ==============================
 nivel de optimizacion:            3
 doing SCF_in
 atoms QM, MM, totals           4           0           4
 doing SCF? T
 doing forces? T
Weights: 2776us.
Particion 0: 2515130
Particion 1: 2348830
Particion 2: 2508420
Relacion max / min = 1.070801
--> Thread OMP: 4
--> Thread CPU: 3
--> Thread GPU: 1
--> Correccion de cubos chicos: 250000
--> Puntos de separacion: 200
Timer functions: 790us.
MM point charges: 0
XC energy: 0
XC energy: 0
XC energy: 0
XC energy: 0
XC energy: 0
XC energy: 0
 CONVERGED AT           6 ITERATIONS
XC energy: -17.6179
 Lio  E(H)  -151.427973303020     
 Lio  E(eV)  -4120.56656701440     
XC energy: -17.6179
 

hybrid: Energy Decomposition (eV):
Esiesta:      -4120.566567

hybrid: Atomic forces (eV/Ang):
     1   -0.007050   -0.034021    0.176244
     2   -0.024732   -0.025824   -0.175907
     3    0.036693    0.021146   -0.016934
     4   -0.001823    0.044920    0.018425
-------------------------------------------
 Tot    0.003088    0.006220    0.001829
-------------------------------------------
 Max    0.176244  free, atom      1
 Res    0.075791  sqrt( Sum f_i^2 / 3N )
-------------------------------------------
 Max    0.176244  cons, atom      1
 centrando sistema

hybrid:                 ==============================
                            Begin CG move =      7
                        ==============================
 nivel de optimizacion:            3
 doing SCF_in
 atoms QM, MM, totals           4           0           4
 doing SCF? T
 doing forces? T
Weights: 7883us.
Particion 0: 2515130
Particion 1: 2348830
Particion 2: 2508420
Relacion max / min = 1.070801
--> Thread OMP: 4
--> Thread CPU: 3
--> Thread GPU: 1
--> Correccion de cubos chicos: 250000
--> Puntos de separacion: 200
Timer functions: 1043us.
MM point charges: 0
XC energy: 0
XC energy: 0
XC energy: 0
XC energy: 0
XC energy: 0
XC energy: 0
 CONVERGED AT           6 ITERATIONS
XC energy: -17.6181
 Lio  E(H)  -151.427992919995     
 Lio  E(eV)  -4120.56710081967     
XC energy: -17.6181
 

hybrid: Energy Decomposition (eV):
Esiesta:      -4120.567101

hybrid: Atomic forces (eV/Ang):
     1    0.035521   -0.031637    0.074679
     2   -0.045265    0.014944   -0.073806
     3   -0.010047    0.021064   -0.008557
     4    0.022879    0.001898    0.009463
-------------------------------------------
 Tot    0.003087    0.006269    0.001780
-------------------------------------------
 Max    0.074679  free, atom      1
 Res    0.037409  sqrt( Sum f_i^2 / 3N )
-------------------------------------------
 Max    0.074679  cons, atom      1
 centrando sistema
  Econtribution          1.487813        -4120.567101            0.000000            0.000000            0.000000            0.000000        -4120.567101
 
constr opt: Optimized Reaction Coordinate
Reaction Coordinate (Ang) :    1.48781
Total Energy (eV) :  -4120.56710
 
*******************************
  Constrained Step :     3
*******************************

hybrid:                 ==============================
                            Begin CG move =      0
                        ==============================
 nivel de optimizacion:            3
 defino cuts 
 doing SCF_in
 atoms QM, MM, totals           4           0           4
 doing SCF? T
 doing forces? T
Weights: 2852us.
Particion 0: 2515130
Particion 1: 2348830
Particion 2: 2508420
Relacion max / min = 1.070801
--> Thread OMP: 4
--> Thread CPU: 3
--> Thread GPU: 1
--> Correccion de cubos chicos: 250000
--> Puntos de separacion: 200
Timer functions: 463us.
MM point charges: 0
XC energy: 0
XC energy: 0
 CONVERGED AT           2 ITERATIONS
XC energy: -17.6181
 Lio  E(H)  -151.427992583412     
 Lio  E(eV)  -4120.56709166078     
XC energy: -17.6181

constr opt: variable constraint
icosntr  :   1
targeted :   1.582
actual   :   1.488
 

hybrid: Energy Decomposition (eV):
Esiesta:      -4120.567092

hybrid: Atomic forces (eV/Ang):
     1   -0.036015    0.009318   -0.890724
     2    0.026383   -0.026066    0.891578
     3   -0.010122    0.021061   -0.008544
     4    0.022842    0.001956    0.009469
-------------------------------------------
 Tot    0.003087    0.006269    0.001779
-------------------------------------------
 Max    0.891578  free, atom      2
 Res    0.364268  sqrt( Sum f_i^2 / 3N )
-------------------------------------------
 Max    0.891578  cons, atom      2

cgvc: Finished line minimization    3.  Mean atomic displacement =    0.1000
 centrando sistema

hybrid:                 ==============================
                            Begin CG move =      1
                        ==============================
 nivel de optimizacion:            3
 doing SCF_in
 atoms QM, MM, totals           4           0           4
 doing SCF? T
 doing forces? T
Weights: 70949us.
Particion 0: 2581610
Particion 1: 2587260
Particion 2: 2759590
Relacion max / min = 1.068941
--> Thread OMP: 4
--> Thread CPU: 3
--> Thread GPU: 1
--> Correccion de cubos chicos: 250000
--> Puntos de separacion: 200
Timer functions: 654us.
MM point charges: 0
XC energy: 0
XC energy: 0
XC energy: 0
XC energy: 0
XC energy: 0
XC energy: 0
XC energy: 0
XC energy: 0
XC energy: 0
 CONVERGED AT           9 ITERATIONS
XC energy: -17.5744
 
    ╔════════════════════════════════════════════╗
    ║        ENERGY CONTRIBUTIONS IN A.U.        ║
    ╠══════════════════╦═════════════════════════╣
    ║   ONE ELECTRON   ║      -275.5356828       ║
    ╠══════════════════╬═════════════════════════╣
    ║   COULOMB        ║       107.7991754       ║
    ╠══════════════════╬═════════════════════════╣
    ║   NUCLEAR        ║        33.8925108       ║
    ╠══════════════════╬═════════════════════════╣
    ║   EXC. - CORR.   ║       -17.5744224       ║
    ╠══════════════════╬═════════════════════════╣
    ║   TOTAL          ║      -151.4184191       ║
    ╚══════════════════╩═════════════════════════╝
 
 Lio  E(H)  -151.418419098210     
 Lio  E(eV)  -4120.30658376258     
XC energy: -17.5744
 

hybrid: Energy Decomposition (eV):
Esiesta:      -4120.306584

hybrid: Atomic forces (eV/Ang):
     1   -0.864161   -0.230676    6.522463
     2    0.228538   -0.866724   -6.521358
     3    1.326308   -0.026602   -0.226654
     4   -0.686017    1.131456    0.228366
-------------------------------------------
 Tot    0.004669    0.007454    0.002818
-------------------------------------------
 Max    6.522463  free, atom      1
 Res    2.742994  sqrt( Sum f_i^2 / 3N )
-------------------------------------------
 Max    6.522463  cons, atom      1
 centrando sistema

hybrid:                 ==============================
                            Begin CG move =      2
                        ==============================
 nivel de optimizacion:            3
 doing SCF_in
 atoms QM, MM, totals           4           0           4
 doing SCF? T
 doing forces? T
Weights: 5548us.
Particion 0: 2547730
Particion 1: 2587060
Particion 2: 2755470
Relacion max / min = 1.081539
--> Thread OMP: 4
--> Thread CPU: 3
--> Thread GPU: 1
--> Correccion de cubos chicos: 250000
--> Puntos de separacion: 200
Timer functions: 3207us.
MM point charges: 0
XC energy: 0
XC energy: 0
XC energy: 0
XC energy: 0
XC energy: 0
XC energy: 0
XC energy: 0
XC energy: 0
XC energy: 0
 CONVERGED AT           9 ITERATIONS
XC energy: -17.612
 Lio  E(H)  -151.427624480090     
 Lio  E(eV)  -4120.55707505547     
XC energy: -17.612
 

hybrid: Energy Decomposition (eV):
Esiesta:      -4120.557075

hybrid: Atomic forces (eV/Ang):
     1   -0.140625   -0.021796    0.243749
     2    0.051031   -0.133274   -0.242523
     3    0.165960    0.011903   -0.039172
     4   -0.073024    0.149310    0.040381
-------------------------------------------
 Tot    0.003343    0.006143    0.002435
-------------------------------------------
 Max    0.243749  free, atom      1
 Res    0.134574  sqrt( Sum f_i^2 / 3N )
-------------------------------------------
 Max    0.243749  cons, atom      1

cgvc: Finished line minimization    1.  Mean atomic displacement =    0.0121
 centrando sistema

hybrid:                 ==============================
                            Begin CG move =      3
                        ==============================
 nivel de optimizacion:            3
 doing SCF_in
 atoms QM, MM, totals           4           0           4
 doing SCF? T
 doing forces? T
Weights: 9373us.
Particion 0: 2537170
Particion 1: 2587060
Particion 2: 2755470
Relacion max / min = 1.086041
--> Thread OMP: 4
--> Thread CPU: 3
--> Thread GPU: 1
--> Correccion de cubos chicos: 250000
--> Puntos de separacion: 200
Timer functions: 1192us.
MM point charges: 0
XC energy: 0
XC energy: 0
XC energy: 0
XC energy: 0
XC energy: 0
XC energy: 0
XC energy: 0
XC energy: 0
 CONVERGED AT           8 ITERATIONS
XC energy: -17.5998
 Lio  E(H)  -151.427232006917     
 Lio  E(eV)  -4120.54639531249     
XC energy: -17.5998
 

hybrid: Energy Decomposition (eV):
Esiesta:      -4120.546395

hybrid: Atomic forces (eV/Ang):
     1    0.874070   -0.051216    0.530179
     2   -0.482763    0.730834   -0.529205
     3   -0.745673   -0.017027    0.091510
     4    0.358694   -0.655524   -0.089632
-------------------------------------------
 Tot    0.004328    0.007067    0.002851
-------------------------------------------
 Max    0.874070  free, atom      1
 Res    0.518495  sqrt( Sum f_i^2 / 3N )
-------------------------------------------
 Max    0.874070  cons, atom      1
 centrando sistema

hybrid:                 ==============================
                            Begin CG move =      4
                        ==============================
 nivel de optimizacion:            3
 doing SCF_in
 atoms QM, MM, totals           4           0           4
 doing SCF? T
 doing forces? T
Weights: 5829us.
Particion 0: 2547730
Particion 1: 2587060
Particion 2: 2755470
Relacion max / min = 1.081539
--> Thread OMP: 4
--> Thread CPU: 3
--> Thread GPU: 1
--> Correccion de cubos chicos: 250000
--> Puntos de separacion: 200
Timer functions: 2284us.
MM point charges: 0
XC energy: 0
XC energy: 0
XC energy: 0
XC energy: 0
XC energy: 0
XC energy: 0
XC energy: 0
 CONVERGED AT           7 ITERATIONS
XC energy: -17.6112
 Lio  E(H)  -151.427611037892     
 Lio  E(eV)  -4120.55670927451     
XC energy: -17.6112
 

hybrid: Energy Decomposition (eV):
Esiesta:      -4120.556709

hybrid: Atomic forces (eV/Ang):
     1   -0.071972   -0.023736    0.262409
     2    0.014860   -0.074590   -0.261175
     3    0.104102    0.009983   -0.029997
     4   -0.043591    0.094538    0.031226
-------------------------------------------
 Tot    0.003399    0.006196    0.002463
-------------------------------------------
 Max    0.262409  free, atom      1
 Res    0.119808  sqrt( Sum f_i^2 / 3N )
-------------------------------------------
 Max    0.262409  cons, atom      1

cgvc: Finished line minimization    2.  Mean atomic displacement =    0.0008
 centrando sistema

hybrid:                 ==============================
                            Begin CG move =      5
                        ==============================
 nivel de optimizacion:            3
 doing SCF_in
 atoms QM, MM, totals           4           0           4
 doing SCF? T
 doing forces? T
Weights: 6224us.
Particion 0: 2547730
Particion 1: 2587060
Particion 2: 2755470
Relacion max / min = 1.081539
--> Thread OMP: 4
--> Thread CPU: 3
--> Thread GPU: 1
--> Correccion de cubos chicos: 250000
--> Puntos de separacion: 200
Timer functions: 649us.
MM point charges: 0
XC energy: 0
XC energy: 0
XC energy: 0
XC energy: 0
XC energy: 0
XC energy: 0
 CONVERGED AT           6 ITERATIONS
XC energy: -17.6113
 Lio  E(H)  -151.427642447441     
 Lio  E(eV)  -4120.55756397216     
XC energy: -17.6113
 

hybrid: Energy Decomposition (eV):
Esiesta:      -4120.557564

hybrid: Atomic forces (eV/Ang):
     1   -0.032932   -0.022067    0.189643
     2   -0.003130   -0.040016   -0.188455
     3    0.062577    0.009721   -0.023003
     4   -0.023107    0.058590    0.024242
-------------------------------------------
 Tot    0.003407    0.006229    0.002427
-------------------------------------------
 Max    0.189643  free, atom      1
 Res    0.083544  sqrt( Sum f_i^2 / 3N )
-------------------------------------------
 Max    0.189643  cons, atom      1
 centrando sistema

hybrid:                 ==============================
                            Begin CG move =      6
                        ==============================
 nivel de optimizacion:            3
 doing SCF_in
 atoms QM, MM, totals           4           0           4
 doing SCF? T
 doing forces? T
Weights: 5975us.
Particion 0: 2547730
Particion 1: 2587060
Particion 2: 2755470
Relacion max / min = 1.081539
--> Thread OMP: 4
--> Thread CPU: 3
--> Thread GPU: 1
--> Correccion de cubos chicos: 250000
--> Puntos de separacion: 200
Timer functions: 3636us.
MM point charges: 0
XC energy: 0
XC energy: 0
XC energy: 0
XC energy: 0
XC energy: 0
XC energy: 0
 CONVERGED AT           6 ITERATIONS
XC energy: -17.6114
 Lio  E(H)  -151.427688468439     
 Lio  E(eV)  -4120.55881626779     
XC energy: -17.6114
 

hybrid: Energy Decomposition (eV):
Esiesta:      -4120.558816

hybrid: Atomic forces (eV/Ang):
     1    0.029190   -0.019388    0.072668
     2   -0.031744    0.015065   -0.071594
     3   -0.003566    0.009308   -0.011803
     4    0.009541    0.001298    0.013098
-------------------------------------------
 Tot    0.003421    0.006282    0.002369
-------------------------------------------
 Max    0.072668  free, atom      1
 Res    0.033381  sqrt( Sum f_i^2 / 3N )
-------------------------------------------
 Max    0.072668  cons, atom      1
 centrando sistema
  Econtribution          1.503667        -4120.558816            0.000000            0.000000            0.000000            0.000000        -4120.558816
 
constr opt: Optimized Reaction Coordinate
Reaction Coordinate (Ang) :    1.50367
Total Energy (eV) :  -4120.55882
 
*******************************
  Constrained Step :     4
*******************************

hybrid:                 ==============================
                            Begin CG move =      0
                        ==============================
 nivel de optimizacion:            3
 defino cuts 
 doing SCF_in
 atoms QM, MM, totals           4           0           4
 doing SCF? T
 doing forces? T
Weights: 2746us.
Particion 0: 2547730
Particion 1: 2587060
Particion 2: 2755470
[...]
 Max    1.017546  free, atom      2
 Res    0.419630  sqrt( Sum f_i^2 / 3N )
-------------------------------------------
 Max    1.017546  cons, atom      2

cgvc: Finished line minimization    4.  Mean atomic displacement =    0.1000
 centrando sistema

hybrid:                 ==============================
                            Begin CG move =      1
                        ==============================
 nivel de optimizacion:            3
 doing SCF_in
 atoms QM, MM, totals           4           0           4
 doing SCF? T
 doing forces? T
Weights: 5291us.
Particion 0: 2743120
Particion 1: 2584570
Particion 2: 2510680
Relacion max / min = 1.092580
--> Thread OMP: 4
--> Thread CPU: 3
--> Thread GPU: 1
--> Correccion de cubos chicos: 250000
--> Puntos de separacion: 200
Timer functions: 3583us.
MM point charges: 0
XC energy: 0
XC energy: 0
XC energy: 0
XC energy: 0
XC energy: 0
XC energy: 0
XC energy: 0
XC energy: 0
XC energy: 0
XC energy: 0
XC energy: 0
XC energy: 0
XC energy: 0
XC energy: 0
XC energy: 0
XC energy: 0
XC energy: 0
XC energy: 0
XC energy: 0
XC energy: 0
XC energy: 0
XC energy: 0
XC energy: 0
XC energy: 0
XC energy: 0
XC energy: 0
XC energy: 0
XC energy: 0
XC energy: 0
XC energy: 0
XC energy: 0
XC energy: 0
XC energy: 0
XC energy: 0
XC energy: 0
XC energy: 0
XC energy: 0
XC energy: 0
XC energy: 0
XC energy: 0
XC energy: 0
XC energy: 0
XC energy: 0
XC energy: 0
XC energy: 0
XC energy: 0
XC energy: 0
XC energy: 0
XC energy: 0
XC energy: 0
XC energy: 0
XC energy: 0
XC energy: 0
XC energy: 0
XC energy: 0
XC energy: 0
XC energy: 0
XC energy: 0
XC energy: 0
XC energy: 0
XC energy: 0
XC energy: 0
XC energy: 0
XC energy: 0
XC energy: 0
XC energy: 0
XC energy: 0
XC energy: 0
XC energy: 0
XC energy: 0
XC energy: 0
XC energy: 0
XC energy: 0
XC energy: 0
XC energy: 0
XC energy: 0
XC energy: 0
XC energy: 0
XC energy: 0
XC energy: 0
XC energy: 0
XC energy: 0
XC energy: 0
XC energy: 0
XC energy: 0
XC energy: 0
XC energy: 0
XC energy: 0
XC energy: 0
XC energy: 0
XC energy: 0
XC energy: 0
XC energy: 0
XC energy: 0
XC energy: 0
XC energy: 0
XC energy: 0
XC energy: 0
XC energy: 0
XC energy: 0
XC energy: 0
XC energy: 0
XC energy: 0
XC energy: 0
XC energy: 0
XC energy: 0
XC energy: 0
XC energy: 0
XC energy: 0
XC energy: 0
XC energy: 0
XC energy: 0
XC energy: 0
XC energy: 0
XC energy: 0
XC energy: 0
XC energy: 0
XC energy: 0
XC energy: 0
XC energy: 0
XC energy: 0
XC energy: 0
XC energy: 0
XC energy: 0
XC energy: 0
XC energy: 0
XC energy: 0
XC energy: 0
XC energy: 0
XC energy: 0
XC energy: 0
XC energy: 0
XC energy: 0
XC energy: 0
XC energy: 0
XC energy: 0
XC energy: 0
XC energy: 0
XC energy: 0
XC energy: 0
XC energy: 0
XC energy: 0
XC energy: 0
XC energy: 0
XC energy: 0
XC energy: 0
XC energy: 0
XC energy: 0
XC energy: 0
XC energy: 0
XC energy: 0
XC energy: 0
XC energy: 0
XC energy: 0
XC energy: 0
XC energy: 0
XC energy: 0
XC energy: 0
XC energy: 0
XC energy: 0
XC energy: 0
XC energy: 0
XC energy: 0
XC energy: 0
XC energy: 0
XC energy: 0
XC energy: 0
XC energy: 0
XC energy: 0
XC energy: 0
XC energy: 0
XC energy: 0
XC energy: 0
XC energy: 0
XC energy: 0
XC energy: 0
XC energy: 0
XC energy: 0
XC energy: 0
XC energy: 0
XC energy: 0
XC energy: 0
XC energy: 0
XC energy: 0
XC energy: 0
XC energy: 0
XC energy: 0
XC energy: 0
XC energy: 0
XC energy: 0
XC energy: 0
XC energy: 0
XC energy: 0
XC energy: 0
XC energy: 0
XC energy: 0
XC energy: 0
XC energy: 0
XC energy: 0
XC energy: 0
XC energy: 0
 NO CONVERGENCE AT          200  ITERATIONS
XC energy: -17.5225
 
    ╔════════════════════════════════════════════╗
    ║        ENERGY CONTRIBUTIONS IN A.U.        ║
    ╠══════════════════╦═════════════════════════╣
    ║   ONE ELECTRON   ║      -260.7229809       ║
    ╠══════════════════╬═════════════════════════╣
    ║   COULOMB        ║       100.7335406       ║
    ╠══════════════════╬═════════════════════════╣
    ║   NUCLEAR        ║        26.2522938       ║
    ╠══════════════════╬═════════════════════════╣
    ║   EXC. - CORR.   ║       -17.5225477       ║
    ╠══════════════════╬═════════════════════════╣
    ║   TOTAL          ║      -151.2596941       ║
    ╚══════════════════╩═════════════════════════╝
 
 Lio  E(H)  -151.259694119903     
 Lio  E(eV)  -4115.98745550183     
XC energy: -17.5225
 

hybrid: Energy Decomposition (eV):
Esiesta:      -4115.987456

hybrid: Atomic forces (eV/Ang):
     1    0.672149    0.923091   -5.270580
     2    0.464687    1.030699    5.273110
     3   -1.238513   -0.585187    0.191150
     4    0.105412   -1.363097   -0.194958
-------------------------------------------
 Tot    0.003735    0.005507   -0.001278
-------------------------------------------
 Max    5.273110  free, atom      2
 Res    2.272790  sqrt( Sum f_i^2 / 3N )
-------------------------------------------
 Max    5.273110  cons, atom      2
 centrando sistema

hybrid:                 ==============================
                            Begin CG move =      2
                        ==============================
 nivel de optimizacion:            3
 doing SCF_in
 atoms QM, MM, totals           4           0           4
 doing SCF? T
 doing forces? T
Weights: 2960us.
Particion 0: 2745060
Particion 1: 2581130
Particion 2: 2509290
Relacion max / min = 1.093959
--> Thread OMP: 4
--> Thread CPU: 3
--> Thread GPU: 1
--> Correccion de cubos chicos: 250000
--> Puntos de separacion: 200
Timer functions: 676us.
MM point charges: 0
XC energy: 0
XC energy: 0
XC energy: 0
XC energy: 0
XC energy: 0
XC energy: 0
XC energy: 0
XC energy: 0
XC energy: 0
XC energy: 0
XC energy: 0
XC energy: 0
XC energy: 0
XC energy: 0
XC energy: 0
XC energy: 0
XC energy: 0
XC energy: 0
XC energy: 0
XC energy: 0
XC energy: 0
XC energy: 0
XC energy: 0
XC energy: 0
XC energy: 0
XC energy: 0
XC energy: 0
XC energy: 0
XC energy: 0
XC energy: 0
XC energy: 0
XC energy: 0
XC energy: 0
XC energy: 0
XC energy: 0
XC energy: 0
XC energy: 0
XC energy: 0
XC energy: 0
XC energy: 0
XC energy: 0
XC energy: 0
XC energy: 0
XC energy: 0
XC energy: 0
XC energy: 0
XC energy: 0
XC energy: 0
XC energy: 0
XC energy: 0
XC energy: 0
XC energy: 0
XC energy: 0
XC energy: 0
XC energy: 0
XC energy: 0
XC energy: 0
XC energy: 0
XC energy: 0
XC energy: 0
XC energy: 0
XC energy: 0
XC energy: 0
XC energy: 0
XC energy: 0
XC energy: 0
XC energy: 0
XC energy: 0
XC energy: 0
XC energy: 0
XC energy: 0
XC energy: 0
XC energy: 0
XC energy: 0
XC energy: 0
XC energy: 0
XC energy: 0
XC energy: 0
XC energy: 0
XC energy: 0
XC energy: 0
XC energy: 0
XC energy: 0
XC energy: 0
XC energy: 0
XC energy: 0
XC energy: 0
XC energy: 0
XC energy: 0
XC energy: 0
XC energy: 0
XC energy: 0
XC energy: 0
XC energy: 0
XC energy: 0
XC energy: 0
XC energy: 0
XC energy: 0
XC energy: 0
XC energy: 0
XC energy: 0
XC energy: 0
XC energy: 0
XC energy: 0
XC energy: 0
XC energy: 0
XC energy: 0
XC energy: 0
XC energy: 0
XC energy: 0
XC energy: 0
XC energy: 0
XC energy: 0
XC energy: 0
XC energy: 0
XC energy: 0
XC energy: 0
XC energy: 0
XC energy: 0
XC energy: 0
XC energy: 0
XC energy: 0
XC energy: 0
XC energy: 0
XC energy: 0
XC energy: 0
XC energy: 0
XC energy: 0
XC energy: 0
XC energy: 0
XC energy: 0
XC energy: 0
XC energy: 0
XC energy: 0
XC energy: 0
XC energy: 0
XC energy: 0
XC energy: 0
XC energy: 0
XC energy: 0
XC energy: 0
XC energy: 0
XC energy: 0
XC energy: 0
XC energy: 0
XC energy: 0
XC energy: 0
XC energy: 0
XC energy: 0
XC energy: 0
XC energy: 0
XC energy: 0
XC energy: 0
XC energy: 0
XC energy: 0
XC energy: 0
XC energy: 0
XC energy: 0
XC energy: 0
XC energy: 0
XC energy: 0
XC energy: 0
XC energy: 0
XC energy: 0
XC energy: 0
XC energy: 0
XC energy: 0
XC energy: 0
XC energy: 0
XC energy: 0
XC energy: 0
XC energy: 0
XC energy: 0
XC energy: 0
XC energy: 0
XC energy: 0
XC energy: 0
XC energy: 0
XC energy: 0
XC energy: 0
XC energy: 0
XC energy: 0
XC energy: 0
XC energy: 0
XC energy: 0
XC energy: 0
XC energy: 0
XC energy: 0
XC energy: 0
XC energy: 0
XC energy: 0
XC energy: 0
XC energy: 0
XC energy: 0
XC energy: 0
XC energy: 0
XC energy: 0
XC energy: 0
XC energy: 0
XC energy: 0
XC energy: 0
 NO CONVERGENCE AT          200  ITERATIONS
XC energy: -17.4811
 Lio  E(H)  -151.373248671575     
 Lio  E(eV)  -4119.07743338996     
XC energy: -17.4811
 

hybrid: Energy Decomposition (eV):
Esiesta:      -4119.077433

hybrid: Atomic forces (eV/Ang):
     1    3.479640    0.149875   -0.349676
     2   -1.609016    3.099948    0.345436
     3   -3.674968   -0.025332   -0.411237
     4    1.812109   -3.208794    0.415997
-------------------------------------------
 Tot    0.007765    0.015697    0.000520
-------------------------------------------
 Max    3.674968  free, atom      3
 Res    2.081643  sqrt( Sum f_i^2 / 3N )
-------------------------------------------
 Max    3.674968  cons, atom      3
 centrando sistema

hybrid:                 ==============================
                            Begin CG move =      3
                        ==============================
 nivel de optimizacion:            3
 doing SCF_in
 atoms QM, MM, totals           4           0           4
 doing SCF? T
 doing forces? T
Weights: 3171us.
Particion 0: 2639300
Particion 1: 2580410
Particion 2: 2511320
Relacion max / min = 1.050961
--> Thread OMP: 4
--> Thread CPU: 3
--> Thread GPU: 1
--> Correccion de cubos chicos: 250000
--> Puntos de separacion: 200
Timer functions: 563us.
MM point charges: 0
XC energy: 0
XC energy: 0
XC energy: 0
XC energy: 0
XC energy: 0
XC energy: 0
XC energy: 0
XC energy: 0
XC energy: 0
XC energy: 0
XC energy: 0
XC energy: 0
XC energy: 0
XC energy: 0
XC energy: 0
XC energy: 0
XC energy: 0
XC energy: 0
XC energy: 0
XC energy: 0
XC energy: 0
XC energy: 0
XC energy: 0
XC energy: 0
XC energy: 0
XC energy: 0
XC energy: 0
XC energy: 0
XC energy: 0
XC energy: 0
XC energy: 0
XC energy: 0
XC energy: 0
XC energy: 0
XC energy: 0
XC energy: 0
XC energy: 0
XC energy: 0
XC energy: 0
XC energy: 0
XC energy: 0
XC energy: 0
XC energy: 0
XC energy: 0
XC energy: 0
XC energy: 0
XC energy: 0
XC energy: 0
XC energy: 0
XC energy: 0
XC energy: 0
XC energy: 0
XC energy: 0
XC energy: 0
XC energy: 0
XC energy: 0
XC energy: 0
XC energy: 0
XC energy: 0
XC energy: 0
XC energy: 0
XC energy: 0
XC energy: 0
XC energy: 0
XC energy: 0
XC energy: 0
XC energy: 0
XC energy: 0
XC energy: 0
XC energy: 0
XC energy: 0
XC energy: 0
XC energy: 0
XC energy: 0
XC energy: 0
XC energy: 0
XC energy: 0
XC energy: 0
XC energy: 0
XC energy: 0
XC energy: 0
XC energy: 0
XC energy: 0
XC energy: 0
XC energy: 0
XC energy: 0
XC energy: 0
XC energy: 0
XC energy: 0
XC energy: 0
XC energy: 0
XC energy: 0
XC energy: 0
XC energy: 0
XC energy: 0
XC energy: 0
XC energy: 0
XC energy: 0
XC energy: 0
XC energy: 0
XC energy: 0
XC energy: 0
XC energy: 0
XC energy: 0
XC energy: 0
XC energy: 0
XC energy: 0
XC energy: 0
XC energy: 0
XC energy: 0
XC energy: 0
XC energy: 0
XC energy: 0
XC energy: 0
XC energy: 0
XC energy: 0
XC energy: 0
XC energy: 0
XC energy: 0
XC energy: 0
XC energy: 0
XC energy: 0
XC energy: 0
XC energy: 0
XC energy: 0
XC energy: 0
XC energy: 0
XC energy: 0
XC energy: 0
XC energy: 0
XC energy: 0
XC energy: 0
XC energy: 0
XC energy: 0
XC energy: 0
XC energy: 0
XC energy: 0
XC energy: 0
XC energy: 0
XC energy: 0
XC energy: 0
XC energy: 0
XC energy: 0
XC energy: 0
XC energy: 0
XC energy: 0
XC energy: 0
XC energy: 0
XC energy: 0
XC energy: 0
XC energy: 0
XC energy: 0
XC energy: 0
XC energy: 0
XC energy: 0
XC energy: 0
XC energy: 0
XC energy: 0
XC energy: 0
XC energy: 0
XC energy: 0
XC energy: 0
XC energy: 0
XC energy: 0
XC energy: 0
XC energy: 0
XC energy: 0
XC energy: 0
XC energy: 0
XC energy: 0
XC energy: 0
XC energy: 0
XC energy: 0
XC energy: 0
XC energy: 0
XC energy: 0
XC energy: 0
XC energy: 0
XC energy: 0
XC energy: 0
XC energy: 0
XC energy: 0
XC energy: 0
XC energy: 0
XC energy: 0
XC energy: 0
XC energy: 0
XC energy: 0
XC energy: 0
XC energy: 0
XC energy: 0
XC energy: 0
XC energy: 0
XC energy: 0
XC energy: 0
XC energy: 0
XC energy: 0
XC energy: 0
XC energy: 0
XC energy: 0
XC energy: 0
 NO CONVERGENCE AT          200  ITERATIONS
XC energy: -17.4321
 Lio  E(H)  -151.317846655780     
 Lio  E(eV)  -4117.56986719167     
XC energy: -17.4321
 

hybrid: Energy Decomposition (eV):
Esiesta:      -4117.569867

hybrid: Atomic forces (eV/Ang):
     1    5.606468   -0.529816    4.806532
     2   -3.139416    4.462980   -4.698053
     3   -5.531553    0.494485   -1.509189
     4    3.069321   -4.417731    1.400729
-------------------------------------------
 Tot    0.004820    0.009918    0.000019
-------------------------------------------
 Max    5.606468  free, atom      1
 Res    3.771396  sqrt( Sum f_i^2 / 3N )
-------------------------------------------
 Max    5.606468  cons, atom      1
 centrando sistema

hybrid:                 ==============================
                            Begin CG move =      4
                        ==============================
 nivel de optimizacion:            3
 doing SCF_in
 atoms QM, MM, totals           4           0           4
 doing SCF? T
 doing forces? T
Weights: 2914us.
Particion 0: 2745060
Particion 1: 2581130
Particion 2: 2509290
Relacion max / min = 1.093959
--> Thread OMP: 4
--> Thread CPU: 3
--> Thread GPU: 1
--> Correccion de cubos chicos: 250000
--> Puntos de separacion: 200
Timer functions: 557us.
MM point charges: 0
XC energy: 0
XC energy: 0
XC energy: 0
XC energy: 0
XC energy: 0
XC energy: 0
XC energy: 0
XC energy: 0
XC energy: 0
XC energy: 0
XC energy: 0
XC energy: 0
XC energy: 0
XC energy: 0
XC energy: 0
XC energy: 0
XC energy: 0
XC energy: 0
XC energy: 0
XC energy: 0
XC energy: 0
XC energy: 0
XC energy: 0
XC energy: 0
XC energy: 0
XC energy: 0
XC energy: 0
XC energy: 0
XC energy: 0
XC energy: 0
XC energy: 0
XC energy: 0
XC energy: 0
XC energy: 0
XC energy: 0
XC energy: 0
XC energy: 0
XC energy: 0
XC energy: 0
XC energy: 0
XC energy: 0
XC energy: 0
XC energy: 0
XC energy: 0
XC energy: 0
XC energy: 0
XC energy: 0
XC energy: 0
XC energy: 0
XC energy: 0
XC energy: 0
XC energy: 0
XC energy: 0
XC energy: 0
XC energy: 0
XC energy: 0
XC energy: 0
XC energy: 0
XC energy: 0
XC energy: 0
XC energy: 0
XC energy: 0
XC energy: 0
XC energy: 0
XC energy: 0
XC energy: 0
XC energy: 0
XC energy: 0
XC energy: 0
XC energy: 0
XC energy: 0
XC energy: 0
XC energy: 0
XC energy: 0
XC energy: 0
XC energy: 0
XC energy: 0
XC energy: 0
XC energy: 0
XC energy: 0
XC energy: 0
XC energy: 0
XC energy: 0
XC energy: 0
XC energy: 0
XC energy: 0
XC energy: 0
XC energy: 0
XC energy: 0
XC energy: 0
XC energy: 0
XC energy: 0
XC energy: 0
XC energy: 0
XC energy: 0
XC energy: 0
XC energy: 0
XC energy: 0
XC energy: 0
XC energy: 0
XC energy: 0
XC energy: 0
XC energy: 0
XC energy: 0
XC energy: 0
XC energy: 0
XC energy: 0
XC energy: 0
XC energy: 0
XC energy: 0
XC energy: 0
XC energy: 0
XC energy: 0
XC energy: 0
XC energy: 0
XC energy: 0
XC energy: 0
XC energy: 0
XC energy: 0
XC energy: 0
XC energy: 0
XC energy: 0
XC energy: 0
XC energy: 0
XC energy: 0
XC energy: 0
XC energy: 0
XC energy: 0
XC energy: 0
XC energy: 0
XC energy: 0
XC energy: 0
XC energy: 0
XC energy: 0
XC energy: 0
XC energy: 0
XC energy: 0
XC energy: 0
XC energy: 0
XC energy: 0
XC energy: 0
XC energy: 0
XC energy: 0
XC energy: 0
XC energy: 0
XC energy: 0
XC energy: 0
XC energy: 0
XC energy: 0
XC energy: 0
XC energy: 0
XC energy: 0
XC energy: 0
XC energy: 0
XC energy: 0
XC energy: 0
XC energy: 0
XC energy: 0
XC energy: 0
XC energy: 0
XC energy: 0
XC energy: 0
XC energy: 0
XC energy: 0
XC energy: 0
XC energy: 0
XC energy: 0
XC energy: 0
XC energy: 0
XC energy: 0
XC energy: 0
XC energy: 0
XC energy: 0
XC energy: 0
XC energy: 0
XC energy: 0
XC energy: 0
XC energy: 0
XC energy: 0
XC energy: 0
XC energy: 0
XC energy: 0
XC energy: 0
XC energy: 0
XC energy: 0
XC energy: 0
XC energy: 0
XC energy: 0
XC energy: 0
XC energy: 0
XC energy: 0
XC energy: 0
XC energy: 0
XC energy: 0
XC energy: 0
XC energy: 0
XC energy: 0
XC energy: 0
XC energy: 0
XC energy: 0
XC energy: 0
 NO CONVERGENCE AT          200  ITERATIONS
XC energy: -17.4803
 Lio  E(H)  -151.263138598063     
 Lio  E(eV)  -4116.08118456151     
XC energy: -17.4803
 

hybrid: Energy Decomposition (eV):
Esiesta:      -4116.081185

hybrid: Atomic forces (eV/Ang):
     1    2.996273    0.172842   -0.112911
     2   -1.332587    2.670899    0.121501
     3   -3.210556   -0.036248   -0.410798
     4    1.554660   -2.791843    0.402799
-------------------------------------------
 Tot    0.007790    0.015650    0.000591
-------------------------------------------
 Max    3.210556  free, atom      3
 Res    1.798052  sqrt( Sum f_i^2 / 3N )
-------------------------------------------
 Max    3.210556  cons, atom      3

cgvc: Finished line minimization    1.  Mean atomic displacement =    0.1447
 centrando sistema

hybrid:                 ==============================
                            Begin CG move =      5
                        ==============================
 nivel de optimizacion:            3
 doing SCF_in
 atoms QM, MM, totals           4           0           4
 doing SCF? T
 doing forces? T
Weights: 4816us.
Particion 0: 2640510
Particion 1: 2580510
Particion 2: 2511260
Relacion max / min = 1.051468
--> Thread OMP: 4
--> Thread CPU: 3
--> Thread GPU: 1
--> Correccion de cubos chicos: 250000
--> Puntos de separacion: 200
Timer functions: 580us.
MM point charges: 0
XC energy: 0
XC energy: 0
XC energy: 0
XC energy: 0
XC energy: 0
XC energy: 0
XC energy: 0
XC energy: 0
XC energy: 0
XC energy: 0
XC energy: 0
XC energy: 0
XC energy: 0
XC energy: 0
XC energy: 0
XC energy: 0
XC energy: 0
XC energy: 0
XC energy: 0
XC energy: 0
XC energy: 0
XC energy: 0
XC energy: 0
XC energy: 0
XC energy: 0
XC energy: 0
XC energy: 0
XC energy: 0
XC energy: 0
XC energy: 0
XC energy: 0
XC energy: 0
XC energy: 0
XC energy: 0
XC energy: 0
XC energy: 0
XC energy: 0
XC energy: 0
XC energy: 0
XC energy: 0
XC energy: 0
XC energy: 0
XC energy: 0
XC energy: 0
XC energy: 0
XC energy: 0
XC energy: 0
XC energy: 0
XC energy: 0
XC energy: 0
XC energy: 0
XC energy: 0
XC energy: 0
XC energy: 0
XC energy: 0
XC energy: 0
XC energy: 0
XC energy: 0
XC energy: 0
XC energy: 0
XC energy: 0
XC energy: 0
XC energy: 0
XC energy: 0
XC energy: 0
XC energy: 0
XC energy: 0
XC energy: 0
XC energy: 0
XC energy: 0
XC energy: 0
XC energy: 0
XC energy: 0
XC energy: 0
XC energy: 0
XC energy: 0
XC energy: 0
XC energy: 0
XC energy: 0
XC energy: 0
XC energy: 0
XC energy: 0
XC energy: 0
XC energy: 0
XC energy: 0
XC energy: 0
XC energy: 0
XC energy: 0
XC energy: 0
XC energy: 0
XC energy: 0
XC energy: 0
XC energy: 0
XC energy: 0
XC energy: 0
XC energy: 0
XC energy: 0
XC energy: 0
XC energy: 0
XC energy: 0
XC energy: 0
XC energy: 0
XC energy: 0
XC energy: 0
XC energy: 0
XC energy: 0
XC energy: 0
XC energy: 0
XC energy: 0
XC energy: 0
XC energy: 0
XC energy: 0
XC energy: 0
XC energy: 0
XC energy: 0
XC energy: 0
XC energy: 0
XC energy: 0
XC energy: 0
XC energy: 0
XC energy: 0
XC energy: 0
XC energy: 0
XC energy: 0
XC energy: 0
XC energy: 0
XC energy: 0
XC energy: 0
XC energy: 0
XC energy: 0
XC energy: 0
XC energy: 0
XC energy: 0
XC energy: 0
XC energy: 0
XC energy: 0
XC energy: 0
XC energy: 0
XC energy: 0
XC energy: 0
XC energy: 0
XC energy: 0
XC energy: 0
XC energy: 0
XC energy: 0
XC energy: 0
XC energy: 0
XC energy: 0
XC energy: 0
XC energy: 0
XC energy: 0
XC energy: 0
XC energy: 0
XC energy: 0
XC energy: 0
XC energy: 0
XC energy: 0
XC energy: 0
XC energy: 0
XC energy: 0
XC energy: 0
XC energy: 0
XC energy: 0
XC energy: 0
XC energy: 0
XC energy: 0
XC energy: 0
XC energy: 0
XC energy: 0
XC energy: 0
XC energy: 0
XC energy: 0
XC energy: 0
XC energy: 0
XC energy: 0
XC energy: 0
XC energy: 0
XC energy: 0
XC energy: 0
XC energy: 0
XC energy: 0
XC energy: 0
XC energy: 0
XC energy: 0
XC energy: 0
XC energy: 0
XC energy: 0
XC energy: 0
XC energy: 0
XC energy: 0
XC energy: 0
XC energy: 0
XC energy: 0
XC energy: 0
XC energy: 0
XC energy: 0
XC energy: 0
XC energy: 0
XC energy: 0
XC energy: 0
XC energy: 0
 NO CONVERGENCE AT          200  ITERATIONS
 stop for not convergion 4 times
