HYBRID 2.0 -- [ Lio-hybrid ] (22 Dec 2017)
Compiler flags: ifort -w -O2 -mp
SERIAL version

hybrid: Running in serial mode
>> Start of run:  22-DEC-2017  16:48:38

                           ***********************       
                           *  WELCOME TO HYBRID  *       
                           ***********************       

reinit: Reading from standard input
************************** Dump of input data file ****************************
SystemName     cut5
SystemLabel    cut5
CenterMolecule T
NumberOfAtoms         6
NumberOfSpecies      3
NetCharge -1.0
FixSpin  T
TotalSpin 0.0
MD.MaxForceTol    0.04 eV/Ang
NumberOfSolventAtoms      0
%block ChemicalSpeciesLabel
       1   6  C
       2   1  H
       3  17  Cl
%endblock ChemicalSpeciesLabel
AtomicCoordinatesFormat  Ang
%block AtomicCoordinatesAndAtomicSpecies
  35.68700  34.50600  35.99000         1
  35.98000  34.12000  35.08700         2
  36.08900  35.73700  36.24600         2
  34.74800  34.44800  36.44800         2
  33.49600  36.20600  33.44400         3
  36.78400  33.67400  37.23300         3
%endblock AtomicCoordinatesAndAtomicSpecies
%block SoluteAtomTypes
  CT  C1    CHC
  HC  H1    CHC
  HC  H2    CHC
  HC  H3    CHC
  Cl  CL    CHC
  Cl  CL    CLO
%endblock SoluteAtomTypes
PAO.BasisType split
PAO.BasisSize       DZP
PAO.EnergyShift      25 meV
PAO.SplitNorm       0.15
WriteMDXmol F
WriteMullikenPop 0
XC.functional       GGA
XC.authors          PBE
MeshCutoff         150.0 Ry
SpinPolarized        T
MaxSCFIterations    80
DM.MixingWeight      0.1
DM.NumberPulay       3
DM.UseSaveDM   T
MD.USeSaveXV   T
MD.UseSaveCG   T
LongOutput    F
MD.TypeOfRun    CG
MD.NumCGsteps   0
%block CutOffRadius
QM  0.2
QMMM 100.0
MM 80.0
BLO 80.0
%endblock CutOffRadius
%block SolventInput
%endblock SolventInput
************************** End of input data file *****************************

reinit: -----------------------------------------------------------------------
reinit: System Name: cut5                                                       
reinit: -----------------------------------------------------------------------
reinit: System Label: cut5                
reinit: -----------------------------------------------------------------------

hybrid: Running with no MM atoms
 
read:***********************************************************************
read: Atomic-coordinates input format  =     Cartesian coordinates (in Ang)
read: Total number of electrons        =    44
read: Dynamics option                  =     CG coord. optimization
read: Use continuation files for CG    =     T
read: Use continuation files for XV    =     T
read: Maximum number of CG moves       =     0
read: Max atomic displ per move        =     0.2000  Bohr
read: Force tolerance                  =     0.0016  Ry/Bohr
read: Write coordinates each           =     1  steps
read: MM x QM steps                    =     1
read: Write forces QM-MM               =     1
read: ***********************************************************************
 buscando cut5.XV                          

ioxv: Reading coordinates and velocities from file
 File lio.in               not found. Using defaults.
<====== Initializing G2G ======>
GPU Device used: GeForce GTX 580
Kernels: gpu
Kernels: cpu
Using 3 CPU Threads and 1 GPU Threads
 JOB STARTED NOW
vie dic 22 16:48:38 -03 2017
basis set corresponding to Z   7 was not used
basis set corresponding to Z  26 was not used
basis set corresponding to Z  16 was not used
basis set corresponding to Z   8 was not used
<======= GPU Code Initialization ========>
atoms: 6
max atoms: 6
number of gaussians: 59
do_forces: false
s: 17 p: 8 d: 3
m: 59 nco: 22
 nco: 22
density basis: s: 37 p: 11 d: 11
density basis: m: 136
Using device 0 for analytic integral calculations

hybrid: unit cell vectors (Ang) from siesta run:
        0.000000    0.000000    0.000000
        0.000000    0.000000    0.000000
        0.000000    0.000000    0.000000

hybrid:                 ==============================
                            Begin CG move =      0
                        ==============================
 nivel de optimizacion:            3
 defino cuts 
 doing SCF_in
 atoms QM, MM, totals           6           0           6
 doing SCF? T
 doing forces? T
Weights: 214704us.
Particion 0: 5402090
Particion 1: 5520740
Particion 2: 5294220
Relacion max / min = 1.042786
--> Thread OMP: 4
--> Thread CPU: 3
--> Thread GPU: 1
--> Correccion de cubos chicos: 250000
--> Puntos de separacion: 200
Timer functions: 2165us.
MM point charges: 0
XC energy: 0
XC energy: 0
XC energy: 0
XC energy: 0
XC energy: 0
XC energy: 0
XC energy: 0
XC energy: 0
XC energy: 0
XC energy: 0
XC energy: 0
XC energy: 0
XC energy: 0
XC energy: 0
XC energy: 0
 CONVERGED AT          15 ITERATIONS
XC energy: -62.6693
 
    ╔════════════════════════════════════════════╗
    ║        ENERGY CONTRIBUTIONS IN A.U.        ║
    ╠══════════════════╦═════════════════════════╣
    ║   ONE ELECTRON   ║     -1533.8092311       ║
    ╠══════════════════╬═════════════════════════╣
    ║   COULOMB        ║       535.5444803       ║
    ╠══════════════════╬═════════════════════════╣
    ║   NUCLEAR        ║       101.0683445       ║
    ╠══════════════════╬═════════════════════════╣
    ║   EXC. - CORR.   ║       -62.6692990       ║
    ╠══════════════════╬═════════════════════════╣
    ║   TOTAL          ║      -959.8657053       ║
    ╚══════════════════╩═════════════════════════╝
 
 Lio  E(H)  -959.865705300642     
 Lio  E(eV)  -26119.2859404573     
XC energy: -62.6693
 

hybrid: Energy Decomposition (eV):
Esiesta:     -26119.285940

hybrid: Total Free Atoms:      6

hybrid: Atomic forces (eV/Ang):
     1    0.242801    0.055911    0.006201
     2    0.074754   -0.383338   -0.771145
     3   -0.316873    0.518095    0.138855
     4   -0.483439    0.297444    0.135698
     5    0.262642   -0.195029    0.295228
     6    0.174191   -0.243548    0.149358
-------------------------------------------
 Tot   -0.045925    0.049535   -0.045805
-------------------------------------------
 Max    0.771145  free, atom      2
 Res    0.320084  sqrt( Sum f_i^2 / 3N )
-------------------------------------------
 Max    0.771145  cons, atom      2

iocg: Reading CG continuation file
 centrando sistema
  Econtribution          0.000000       -26119.285940            0.000000            0.000000            0.000000       -26119.285940
 doing SCF_in
 atoms QM, MM, totals           6           0           6
 doing SCF? T
 doing forces? T
Weights: 2907us.
Particion 0: 5402090
Particion 1: 5520740
Particion 2: 5294220
Relacion max / min = 1.042786
--> Thread OMP: 4
--> Thread CPU: 3
--> Thread GPU: 1
--> Correccion de cubos chicos: 250000
--> Puntos de separacion: 200
Timer functions: 2310us.
MM point charges: 0
XC energy: 0
XC energy: 0
 CONVERGED AT           2 ITERATIONS
XC energy: -62.6693
 Lio  E(H)  -959.865705928807     
 Lio  E(eV)  -26119.2859575506     
XC energy: -62.6693
<====== Deinitializing G2G ======>
>> End of run:  22-DEC-2017  16:48:40
HYBRID 2.0 -- [ Lio-hybrid ] (22 Dec 2017)
Compiler flags: ifort -w -O2 -mp
SERIAL version

hybrid: Running in serial mode
>> Start of run:  22-DEC-2017  17:04:32

                           ***********************       
                           *  WELCOME TO HYBRID  *       
                           ***********************       

reinit: Reading from standard input
************************** Dump of input data file ****************************
SystemName     cut5
SystemLabel    cut5
CenterMolecule T
NumberOfAtoms         6
NumberOfSpecies      3
NetCharge -1.0
FixSpin  T
TotalSpin 0.0
MD.MaxForceTol    0.04 eV/Ang
NumberOfSolventAtoms      0
%block ChemicalSpeciesLabel
       1   6  C
       2   1  H
       3  17  Cl
%endblock ChemicalSpeciesLabel
AtomicCoordinatesFormat  Ang
%block AtomicCoordinatesAndAtomicSpecies
  35.68700  34.50600  35.99000         1
  35.98000  34.12000  35.08700         2
  36.08900  35.73700  36.24600         2
  34.74800  34.44800  36.44800         2
  33.49600  36.20600  33.44400         3
  36.78400  33.67400  37.23300         3
%endblock AtomicCoordinatesAndAtomicSpecies
%block SoluteAtomTypes
  CT  C1    CHC
  HC  H1    CHC
  HC  H2    CHC
  HC  H3    CHC
  Cl  CL    CHC
  Cl  CL    CLO
%endblock SoluteAtomTypes
PAO.BasisType split
PAO.BasisSize       DZP
PAO.EnergyShift      25 meV
PAO.SplitNorm       0.15
WriteMDXmol F
WriteMullikenPop 0
XC.functional       GGA
XC.authors          PBE
MeshCutoff         150.0 Ry
SpinPolarized        T
MaxSCFIterations    80
DM.MixingWeight      0.1
DM.NumberPulay       3
DM.UseSaveDM   T
MD.USeSaveXV   T
MD.UseSaveCG   T
LongOutput    F
MD.TypeOfRun    CG
MD.NumCGsteps   0
%block CutOffRadius
QM  0.2
QMMM 100.0
MM 80.0
BLO 80.0
%endblock CutOffRadius
%block SolventInput
%endblock SolventInput
************************** End of input data file *****************************

reinit: -----------------------------------------------------------------------
reinit: System Name: cut5                                                       
reinit: -----------------------------------------------------------------------
reinit: System Label: cut5                
reinit: -----------------------------------------------------------------------

hybrid: Running with no MM atoms
 
read:***********************************************************************
read: Atomic-coordinates input format  =     Cartesian coordinates (in Ang)
read: Total number of electrons        =    44
read: Dynamics option                  =     CG coord. optimization
read: Use continuation files for CG    =     T
read: Use continuation files for XV    =     T
read: Maximum number of CG moves       =     0
read: Max atomic displ per move        =     0.2000  Bohr
read: Force tolerance                  =     0.0016  Ry/Bohr
read: Write coordinates each           =     1  steps
read: MM x QM steps                    =     1
read: Write forces QM-MM               =     1
read: ***********************************************************************
 buscando cut5.XV                          

ioxv: Reading coordinates and velocities from file
 File lio.in               not found. Using defaults.
<====== Initializing G2G ======>
GPU Device used: GeForce GTX 580
Kernels: gpu
Kernels: cpu
Using 3 CPU Threads and 1 GPU Threads
 JOB STARTED NOW
vie dic 22 17:04:32 -03 2017
basis set corresponding to Z   7 was not used
basis set corresponding to Z  26 was not used
basis set corresponding to Z  16 was not used
basis set corresponding to Z   8 was not used
<======= GPU Code Initialization ========>
atoms: 6
max atoms: 6
number of gaussians: 59
do_forces: false
s: 17 p: 8 d: 3
m: 59 nco: 22
 nco: 22
density basis: s: 37 p: 11 d: 11
density basis: m: 136
Using device 0 for analytic integral calculations

hybrid: unit cell vectors (Ang) from siesta run:
        0.000000    0.000000    0.000000
        0.000000    0.000000    0.000000
        0.000000    0.000000    0.000000

hybrid:                 ==============================
                            Begin CG move =      0
                        ==============================
 nivel de optimizacion:            3
 defino cuts 
 doing SCF_in
 atoms QM, MM, totals           6           0           6
 doing SCF? T
 doing forces? T
Weights: 207951us.
Particion 0: 5420860
Particion 1: 5531230
Particion 2: 5293470
Relacion max / min = 1.044916
--> Thread OMP: 4
--> Thread CPU: 3
--> Thread GPU: 1
--> Correccion de cubos chicos: 250000
--> Puntos de separacion: 200
Timer functions: 2427us.
MM point charges: 0
XC energy: 0
XC energy: 0
XC energy: 0
XC energy: 0
XC energy: 0
XC energy: 0
XC energy: 0
XC energy: 0
XC energy: 0
XC energy: 0
XC energy: 0
XC energy: 0
XC energy: 0
XC energy: 0
 CONVERGED AT          14 ITERATIONS
XC energy: -62.6717
 
    ╔════════════════════════════════════════════╗
    ║        ENERGY CONTRIBUTIONS IN A.U.        ║
    ╠══════════════════╦═════════════════════════╣
    ║   ONE ELECTRON   ║     -1536.5186101       ║
    ╠══════════════════╬═════════════════════════╣
    ║   COULOMB        ║       536.9427078       ║
    ╠══════════════════╬═════════════════════════╣
    ║   NUCLEAR        ║       102.3814368       ║
    ╠══════════════════╬═════════════════════════╣
    ║   EXC. - CORR.   ║       -62.6717141       ║
    ╠══════════════════╬═════════════════════════╣
    ║   TOTAL          ║      -959.8661795       ║
    ╚══════════════════╩═════════════════════════╝
 
 Lio  E(H)  -959.866179478470     
 Lio  E(eV)  -26119.2988434981     
XC energy: -62.6717
 

hybrid: Energy Decomposition (eV):
Esiesta:     -26119.298843

hybrid: Total Free Atoms:      6

hybrid: Atomic forces (eV/Ang):
     1    0.915830   -0.317968    0.109427
     2    0.091598   -0.505256   -0.926027
     3   -0.525639    0.836531    0.188501
     4   -0.887706    0.463329    0.241033
     5    0.254421   -0.177826    0.282135
     6    0.093232   -0.237010    0.074839
-------------------------------------------
 Tot   -0.058264    0.061800   -0.030092
-------------------------------------------
 Max    0.926027  free, atom      2
 Res    0.493955  sqrt( Sum f_i^2 / 3N )
-------------------------------------------
 Max    0.926027  cons, atom      2

iocg: Reading CG continuation file
 centrando sistema
  Econtribution          0.000000       -26119.298843            0.000000            0.000000            0.000000       -26119.298843
 doing SCF_in
 atoms QM, MM, totals           6           0           6
 doing SCF? T
 doing forces? T
Weights: 2937us.
Particion 0: 5420860
Particion 1: 5531230
Particion 2: 5293470
Relacion max / min = 1.044916
--> Thread OMP: 4
--> Thread CPU: 3
--> Thread GPU: 1
--> Correccion de cubos chicos: 250000
--> Puntos de separacion: 200
Timer functions: 2259us.
MM point charges: 0
XC energy: 0
XC energy: 0
 CONVERGED AT           2 ITERATIONS
XC energy: -62.6717
 Lio  E(H)  -959.866177826520     
 Lio  E(eV)  -26119.2987985462     
XC energy: -62.6717
<====== Deinitializing G2G ======>
>> End of run:  22-DEC-2017  17:04:33
HYBRID 2.0 -- [ Lio-hybrid ] (22 Dec 2017)
Compiler flags: ifort -w -O2 -mp
SERIAL version
>> Start of run:  22-DEC-2017  17:14:36

                           ***********************       
                           *  WELCOME TO HYBRID  *       
                           ***********************       

reinit: Reading from standard input
************************** Dump of input data file ****************************
SystemName     cut5
SystemLabel    cut5
CenterMolecule T
NumberOfAtoms         6
NumberOfSpecies      3
NetCharge -1.0
FixSpin  T
TotalSpin 0.0
MD.MaxForceTol    0.04 eV/Ang
NumberOfSolventAtoms      0
%block ChemicalSpeciesLabel
       1   6  C
       2   1  H
       3  17  Cl
%endblock ChemicalSpeciesLabel
AtomicCoordinatesFormat  Ang
%block AtomicCoordinatesAndAtomicSpecies
  35.68700  34.50600  35.99000         1
  35.98000  34.12000  35.08700         2
  36.08900  35.73700  36.24600         2
  34.74800  34.44800  36.44800         2
  33.49600  36.20600  33.44400         3
  36.78400  33.67400  37.23300         3
%endblock AtomicCoordinatesAndAtomicSpecies
%block SoluteAtomTypes
  CT  C1    CHC
  HC  H1    CHC
  HC  H2    CHC
  HC  H3    CHC
  Cl  CL    CHC
  Cl  CL    CLO
%endblock SoluteAtomTypes
PAO.BasisType split
PAO.BasisSize       DZP
PAO.EnergyShift      25 meV
PAO.SplitNorm       0.15
WriteMDXmol F
WriteMullikenPop 0
XC.functional       GGA
XC.authors          PBE
MeshCutoff         150.0 Ry
SpinPolarized        T
MaxSCFIterations    80
DM.MixingWeight      0.1
DM.NumberPulay       3
DM.UseSaveDM   T
MD.USeSaveXV   T
MD.UseSaveCG   T
LongOutput    F
MD.TypeOfRun    CG
MD.NumCGsteps   0
%block CutOffRadius
QM  0.2
QMMM 100.0
MM 80.0
BLO 80.0
%endblock CutOffRadius
%block SolventInput
%endblock SolventInput
************************** End of input data file *****************************

reinit: -----------------------------------------------------------------------
reinit: System Name: cut5                                                       
reinit: -----------------------------------------------------------------------
reinit: System Label: cut5                
reinit: -----------------------------------------------------------------------

hybrid: Running with no MM atoms
 
read:***********************************************************************
read: Atomic-coordinates input format  =     Cartesian coordinates (in Ang)
read: Total number of electrons        =    44
read: Dynamics option                  =     CG coord. optimization
read: Use continuation files for CG    =     T
read: Use continuation files for XV    =     T
read: Maximum number of CG moves       =     0
read: Max atomic displ per move        =     0.2000  Bohr
read: Force tolerance                  =     0.0016  Ry/Bohr
read: Write coordinates each           =     1  steps
read: MM x QM steps                    =     1
read: Write forces QM-MM               =     1
read: ***********************************************************************
 buscando cut5.XV                          

ioxv: Reading coordinates and velocities from file
 File lio.in               not found. Using defaults.
<====== Initializing G2G ======>
GPU Device used: GeForce GTX 580
Kernels: gpu
Kernels: cpu
Using 3 CPU Threads and 1 GPU Threads
 JOB STARTED NOW
vie dic 22 17:14:36 -03 2017
basis set corresponding to Z   7 was not used
basis set corresponding to Z  26 was not used
basis set corresponding to Z  16 was not used
basis set corresponding to Z   8 was not used
<======= GPU Code Initialization ========>
atoms: 6
max atoms: 6
number of gaussians: 59
do_forces: false
s: 17 p: 8 d: 3
m: 59 nco: 22
 nco: 22
density basis: s: 37 p: 11 d: 11
density basis: m: 136
Using device 0 for analytic integral calculations

hybrid: unit cell vectors (Ang) from siesta run:
        0.000000    0.000000    0.000000
        0.000000    0.000000    0.000000
        0.000000    0.000000    0.000000

hybrid:                 ==============================
                            Begin CG move =      0
                        ==============================
 nivel de optimizacion:            3
 defino cuts 
 doing SCF_in
 atoms QM, MM, totals           6           0           6
 doing SCF? T
 doing forces? T
Weights: 204105us.
Particion 0: 5407660
Particion 1: 5338430
Particion 2: 5542750
Relacion max / min = 1.038273
--> Thread OMP: 4
--> Thread CPU: 3
--> Thread GPU: 1
--> Correccion de cubos chicos: 250000
--> Puntos de separacion: 200
Timer functions: 2474us.
MM point charges: 0
XC energy: 0
XC energy: 0
XC energy: 0
XC energy: 0
XC energy: 0
XC energy: 0
XC energy: 0
XC energy: 0
XC energy: 0
XC energy: 0
XC energy: 0
XC energy: 0
XC energy: 0
XC energy: 0
 CONVERGED AT          14 ITERATIONS
XC energy: -62.6756
 
    ╔════════════════════════════════════════════╗
    ║        ENERGY CONTRIBUTIONS IN A.U.        ║
    ╠══════════════════╦═════════════════════════╣
    ║   ONE ELECTRON   ║     -1540.7969824       ║
    ╠══════════════════╬═════════════════════════╣
    ║   COULOMB        ║       539.1506417       ║
    ╠══════════════════╬═════════════════════════╣
    ║   NUCLEAR        ║       104.4562238       ║
    ╠══════════════════╬═════════════════════════╣
    ║   EXC. - CORR.   ║       -62.6755857       ║
    ╠══════════════════╬═════════════════════════╣
    ║   TOTAL          ║      -959.8657026       ║
    ╚══════════════════╩═════════════════════════╝
 
 Lio  E(H)  -959.865702618641     
 Lio  E(eV)  -26119.2858674764     
XC energy: -62.6756
 

hybrid: Energy Decomposition (eV):
Esiesta:     -26119.285867

hybrid: Total Free Atoms:      6

hybrid: Atomic forces (eV/Ang):
     1    1.858939   -0.745198    0.240592
     2    0.150740   -0.709272   -1.129102
     3   -0.803812    1.230763    0.284505
     4   -1.429328    0.643402    0.446732
     5    0.167287   -0.103517    0.185876
     6    0.077264   -0.292438    0.003825
-------------------------------------------
 Tot    0.021089    0.023741    0.032429
-------------------------------------------
 Max    1.858939  free, atom      1
 Res    0.779338  sqrt( Sum f_i^2 / 3N )
-------------------------------------------
 Max    1.858939  cons, atom      1

iocg: Reading CG continuation file
 centrando sistema
  Econtribution          0.000000       -26119.285867            0.000000            0.000000            0.000000       -26119.285867
 doing SCF_in
 atoms QM, MM, totals           6           0           6
 doing SCF? T
 doing forces? T
Weights: 2973us.
Particion 0: 5407660
Particion 1: 5338430
Particion 2: 5542750
Relacion max / min = 1.038273
--> Thread OMP: 4
--> Thread CPU: 3
--> Thread GPU: 1
--> Correccion de cubos chicos: 250000
--> Puntos de separacion: 200
Timer functions: 2060us.
MM point charges: 0
XC energy: 0
XC energy: 0
 CONVERGED AT           2 ITERATIONS
XC energy: -62.6756
 Lio  E(H)  -959.865700269140     
 Lio  E(eV)  -26119.2858035431     
XC energy: -62.6756
<====== Deinitializing G2G ======>
>> End of run:  22-DEC-2017  17:14:38
HYBRID 2.0 -- [ Lio-hybrid ] (22 Dec 2017)
Compiler flags: ifort -w -O2 -mp
SERIAL version
>> Start of run:  22-DEC-2017  17:21:32

                           ***********************       
                           *  WELCOME TO HYBRID  *       
                           ***********************       
************************** Dump of input data file ****************************
************************** End of input data file *****************************

reinit: -----------------------------------------------------------------------
reinit: System Name:                                                            
reinit: -----------------------------------------------------------------------
reinit: System Label: Scarlett            
reinit: -----------------------------------------------------------------------

hybrid: Running with no QM atoms

hybrid: Running with no MM atoms
no atoms in system
Stopping Program
HYBRID 2.0 -- [ Lio-hybrid ] (22 Dec 2017)
Compiler flags: ifort -w -O2 -mp
SERIAL version
>> Start of run:  22-DEC-2017  17:21:45

                           ***********************       
                           *  WELCOME TO HYBRID  *       
                           ***********************       
************************** Dump of input data file ****************************
************************** End of input data file *****************************

reinit: -----------------------------------------------------------------------
reinit: System Name:                                                            
reinit: -----------------------------------------------------------------------
reinit: System Label: Scarlett            
reinit: -----------------------------------------------------------------------

hybrid: Running with no QM atoms

hybrid: Running with no MM atoms
no atoms in system
Stopping Program
HYBRID 2.0 -- [ Lio-hybrid ] (22 Dec 2017)
Compiler flags: ifort -w -O2 -mp
SERIAL version
>> Start of run:  22-DEC-2017  17:28:54

                           ***********************       
                           *  WELCOME TO HYBRID  *       
                           ***********************       

reinit: Reading from standard input
************************** Dump of input data file ****************************
SystemName     cut5
SystemLabel    cut5
CenterMolecule T
NumberOfAtoms         6
NumberOfSpecies      3
NetCharge -1.0
FixSpin  T
TotalSpin 0.0
MD.MaxForceTol    0.04 eV/Ang
NumberOfSolventAtoms      0
%block ChemicalSpeciesLabel
       1   6  C
       2   1  H
       3  17  Cl
%endblock ChemicalSpeciesLabel
AtomicCoordinatesFormat  Ang
%block AtomicCoordinatesAndAtomicSpecies
  35.68700  34.50600  35.99000         1
  35.98000  34.12000  35.08700         2
  36.08900  35.73700  36.24600         2
  34.74800  34.44800  36.44800         2
  33.49600  36.20600  33.44400         3
  36.78400  33.67400  37.23300         3
%endblock AtomicCoordinatesAndAtomicSpecies
%block SoluteAtomTypes
  CT  C1    CHC
  HC  H1    CHC
  HC  H2    CHC
  HC  H3    CHC
  Cl  CL    CHC
  Cl  CL    CLO
%endblock SoluteAtomTypes
PAO.BasisType split
PAO.BasisSize       DZP
PAO.EnergyShift      25 meV
PAO.SplitNorm       0.15
WriteMDXmol F
WriteMullikenPop 0
XC.functional       GGA
XC.authors          PBE
MeshCutoff         150.0 Ry
SpinPolarized        T
MaxSCFIterations    80
DM.MixingWeight      0.1
DM.NumberPulay       3
DM.UseSaveDM   T
MD.USeSaveXV   T
MD.UseSaveCG   T
LongOutput    F
MD.TypeOfRun    CG
MD.NumCGsteps   0
%block CutOffRadius
QM  0.2
QMMM 100.0
MM 80.0
BLO 80.0
%endblock CutOffRadius
%block SolventInput
%endblock SolventInput
************************** End of input data file *****************************

reinit: -----------------------------------------------------------------------
reinit: System Name:                                                            
reinit: -----------------------------------------------------------------------
reinit: System Label: Scarlett            
reinit: -----------------------------------------------------------------------

hybrid: Running with no QM atoms

hybrid: Running with no MM atoms
no atoms in system
Stopping Program
HYBRID 2.0 -- [ Lio-hybrid ] (22 Dec 2017)
Compiler flags: ifort -w -O2 -mp
SERIAL version
>> Start of run:  22-DEC-2017  17:31:05

                           ***********************       
                           *  WELCOME TO HYBRID  *       
                           ***********************       

reinit: Reading from standard input
************************** Dump of input data file ****************************
SystemName     cut5
SystemLabel    cut5
CenterMolecule T
NumberOfAtoms         6
NumberOfSpecies      3
NetCharge -1.0
FixSpin  T
TotalSpin 0.0
MD.MaxForceTol    0.04 eV/Ang
NumberOfSolventAtoms      0
%block ChemicalSpeciesLabel
       1   6  C
       2   1  H
       3  17  Cl
%endblock ChemicalSpeciesLabel
AtomicCoordinatesFormat  Ang
%block AtomicCoordinatesAndAtomicSpecies
  35.68700  34.50600  35.99000         1
  35.98000  34.12000  35.08700         2
  36.08900  35.73700  36.24600         2
  34.74800  34.44800  36.44800         2
  33.49600  36.20600  33.44400         3
  36.78400  33.67400  37.23300         3
%endblock AtomicCoordinatesAndAtomicSpecies
%block SoluteAtomTypes
  CT  C1    CHC
  HC  H1    CHC
  HC  H2    CHC
  HC  H3    CHC
  Cl  CL    CHC
  Cl  CL    CLO
%endblock SoluteAtomTypes
PAO.BasisType split
PAO.BasisSize       DZP
PAO.EnergyShift      25 meV
PAO.SplitNorm       0.15
WriteMDXmol F
WriteMullikenPop 0
XC.functional       GGA
XC.authors          PBE
MeshCutoff         150.0 Ry
SpinPolarized        T
MaxSCFIterations    80
DM.MixingWeight      0.1
DM.NumberPulay       3
DM.UseSaveDM   T
MD.USeSaveXV   T
MD.UseSaveCG   T
LongOutput    F
MD.TypeOfRun    CG
MD.NumCGsteps   0
%block CutOffRadius
QM  0.2
QMMM 100.0
MM 80.0
BLO 80.0
%endblock CutOffRadius
%block SolventInput
%endblock SolventInput
************************** End of input data file *****************************

reinit: -----------------------------------------------------------------------
reinit: System Name: cut5                                                       
reinit: -----------------------------------------------------------------------
reinit: System Label: cut5                
reinit: -----------------------------------------------------------------------

hybrid: Running with no MM atoms
 
read:***********************************************************************
read: Atomic-coordinates input format  =     Cartesian coordinates (in Ang)
read: Total number of electrons        =    44
read: Dynamics option                  =     CG coord. optimization
read: Use continuation files for CG    =     T
read: Use continuation files for XV    =     T
read: Maximum number of CG moves       =     0
read: Max atomic displ per move        =     0.2000  Bohr
read: Force tolerance                  =     0.0016  Ry/Bohr
read: Write coordinates each           =     1  steps
read: MM x QM steps                    =     1
read: Write forces QM-MM               =     1
read: ***********************************************************************
 buscando cut5.XV                          

ioxv: Reading coordinates and velocities from file
 File lio.in               not found. Using defaults.
<====== Initializing G2G ======>
GPU Device used: GeForce GTX 580
Kernels: gpu
Kernels: cpu
Using 3 CPU Threads and 1 GPU Threads
 JOB STARTED NOW
vie dic 22 17:31:05 -03 2017
basis set corresponding to Z   7 was not used
basis set corresponding to Z  26 was not used
basis set corresponding to Z  16 was not used
basis set corresponding to Z   8 was not used
<======= GPU Code Initialization ========>
atoms: 6
max atoms: 6
number of gaussians: 59
do_forces: false
s: 17 p: 8 d: 3
m: 59 nco: 22
 nco: 22
density basis: s: 37 p: 11 d: 11
density basis: m: 136
Using device 0 for analytic integral calculations

hybrid: unit cell vectors (Ang) from siesta run:
        0.000000    0.000000    0.000000
        0.000000    0.000000    0.000000
        0.000000    0.000000    0.000000

hybrid:                 ==============================
                            Begin CG move =      0
                        ==============================
 nivel de optimizacion:            3
 defino cuts 
 doing SCF_in
 atoms QM, MM, totals           6           0           6
 doing SCF? T
 doing forces? T
Weights: 207905us.
Particion 0: 5359600
Particion 1: 5522940
Particion 2: 5293620
Relacion max / min = 1.043320
--> Thread OMP: 4
--> Thread CPU: 3
--> Thread GPU: 1
--> Correccion de cubos chicos: 250000
--> Puntos de separacion: 200
Timer functions: 4992us.
MM point charges: 0
XC energy: 0
XC energy: 0
XC energy: 0
XC energy: 0
XC energy: 0
XC energy: 0
XC energy: 0
XC energy: 0
XC energy: 0
XC energy: 0
XC energy: 0
XC energy: 0
XC energy: 0
XC energy: 0
 CONVERGED AT          14 ITERATIONS
XC energy: -62.6732
 
    ╔════════════════════════════════════════════╗
    ║        ENERGY CONTRIBUTIONS IN A.U.        ║
    ╠══════════════════╦═════════════════════════╣
    ║   ONE ELECTRON   ║     -1538.2095135       ║
    ╠══════════════════╬═════════════════════════╣
    ║   COULOMB        ║       537.8155971       ║
    ╠══════════════════╬═════════════════════════╣
    ║   NUCLEAR        ║       103.2010351       ║
    ╠══════════════════╬═════════════════════════╣
    ║   EXC. - CORR.   ║       -62.6732414       ║
    ╠══════════════════╬═════════════════════════╣
    ║   TOTAL          ║      -959.8661228       ║
    ╚══════════════════╩═════════════════════════╝
 
 Lio  E(H)  -959.866122798319     
 Lio  E(eV)  -26119.2973011520     
XC energy: -62.6732
 

hybrid: Energy Decomposition (eV):
Esiesta:     -26119.297301

hybrid: Total Free Atoms:      6

hybrid: Atomic forces (eV/Ang):
     1    1.308563   -0.512790    0.168400
     2    0.114674   -0.588056   -1.005879
     3   -0.643810    1.008796    0.222332
     4   -1.116070    0.546184    0.316648
     5    0.223068   -0.158270    0.248038
     6    0.082298   -0.246144    0.037834
-------------------------------------------
 Tot   -0.031276    0.049720   -0.012626
-------------------------------------------
 Max    1.308563  free, atom      1
 Res    0.610342  sqrt( Sum f_i^2 / 3N )
-------------------------------------------
 Max    1.308563  cons, atom      1

iocg: Reading CG continuation file

cgvc: Finished line minimization    8.  Mean atomic displacement =    0.1279
 centrando sistema
  Econtribution          0.000000       -26119.297301            0.000000            0.000000            0.000000       -26119.297301
 doing SCF_in
 atoms QM, MM, totals           6           0           6
 doing SCF? T
 doing forces? T
Weights: 3005us.
Particion 0: 5359600
Particion 1: 5522940
Particion 2: 5293620
Relacion max / min = 1.043320
--> Thread OMP: 4
--> Thread CPU: 3
--> Thread GPU: 1
--> Correccion de cubos chicos: 250000
--> Puntos de separacion: 200
Timer functions: 2320us.
MM point charges: 0
XC energy: 0
XC energy: 0
 CONVERGED AT           2 ITERATIONS
XC energy: -62.6732
 Lio  E(H)  -959.866120007001     
 Lio  E(eV)  -26119.2972251963     
XC energy: -62.6732
<====== Deinitializing G2G ======>
>> End of run:  22-DEC-2017  17:31:07
HYBRID 2.0 -- [ Lio-hybrid ] (22 Dec 2017)
Compiler flags: ifort -w -O2 -mp
SERIAL version
>> Start of run:  22-DEC-2017  18:11:58

                           ***********************       
                           *  WELCOME TO HYBRID  *       
                           ***********************       

reinit: Reading from standard input
************************** Dump of input data file ****************************
SystemName     cut5
SystemLabel    cut5
CenterMolecule T
NumberOfAtoms         6
NumberOfSpecies      3
NetCharge -1.0
FixSpin  T
TotalSpin 0.0
MD.MaxForceTol    0.04 eV/Ang
NumberOfSolventAtoms      0
%block ChemicalSpeciesLabel
       1   6  C
       2   1  H
       3  17  Cl
%endblock ChemicalSpeciesLabel
AtomicCoordinatesFormat  Ang
%block AtomicCoordinatesAndAtomicSpecies
  35.68700  34.50600  35.99000         1
  35.98000  34.12000  35.08700         2
  36.08900  35.73700  36.24600         2
  34.74800  34.44800  36.44800         2
  33.49600  36.20600  33.44400         3
  36.78400  33.67400  37.23300         3
%endblock AtomicCoordinatesAndAtomicSpecies
%block SoluteAtomTypes
  CT  C1    CHC
  HC  H1    CHC
  HC  H2    CHC
  HC  H3    CHC
  Cl  CL    CHC
  Cl  CL    CLO
%endblock SoluteAtomTypes
PAO.BasisType split
PAO.BasisSize       DZP
PAO.EnergyShift      25 meV
PAO.SplitNorm       0.15
WriteMDXmol F
WriteMullikenPop 0
XC.functional       GGA
XC.authors          PBE
MeshCutoff         150.0 Ry
SpinPolarized        T
MaxSCFIterations    80
DM.MixingWeight      0.1
DM.NumberPulay       3
DM.UseSaveDM   T
MD.USeSaveXV   T
MD.UseSaveCG   T
LongOutput    F
MD.TypeOfRun    CG
MD.NumCGsteps   0
%block CutOffRadius
QM  0.2
QMMM 100.0
MM 80.0
BLO 80.0
%endblock CutOffRadius
%block SolventInput
%endblock SolventInput
************************** End of input data file *****************************

reinit: -----------------------------------------------------------------------
reinit: System Name: cut5                                                       
reinit: -----------------------------------------------------------------------
reinit: System Label: cut5                
reinit: -----------------------------------------------------------------------

hybrid: Running with no MM atoms
 
read:***********************************************************************
read: Atomic-coordinates input format  =     Cartesian coordinates (in Ang)
read: Total number of electrons        =    44
 opt_scheme vale           0
read: Dynamics option                  =     CG coord. optimization
read: Use continuation files for CG    =     T
read: Use continuation files for XV    =     T
read: Maximum number of CG moves       =     0
read: Max atomic displ per move        =     0.2000  Bohr
read: Force tolerance                  =     0.0016  Ry/Bohr
read: Write coordinates each           =     1  steps
read: MM x QM steps                    =     1
read: Write forces QM-MM               =     1
read: ***********************************************************************
 buscando cut5.XV                          

ioxv: Reading coordinates and velocities from file
 File lio.in               not found. Using defaults.
<====== Initializing G2G ======>
GPU Device used: GeForce GTX 580
Kernels: gpu
Kernels: cpu
Using 3 CPU Threads and 1 GPU Threads
 JOB STARTED NOW
vie dic 22 18:11:58 -03 2017
basis set corresponding to Z   7 was not used
basis set corresponding to Z  26 was not used
basis set corresponding to Z  16 was not used
basis set corresponding to Z   8 was not used
<======= GPU Code Initialization ========>
atoms: 6
max atoms: 6
number of gaussians: 59
do_forces: false
s: 17 p: 8 d: 3
m: 59 nco: 22
 nco: 22
density basis: s: 37 p: 11 d: 11
density basis: m: 136
Using device 0 for analytic integral calculations

hybrid: unit cell vectors (Ang) from siesta run:
        0.000000    0.000000    0.000000
        0.000000    0.000000    0.000000
        0.000000    0.000000    0.000000

hybrid:                 ==============================
                            Begin CG move =      0
                        ==============================
 Optimization level:            3
 defino cuts 
 doing SCF_in
 atoms QM, MM, totals           6           0           6
 doing SCF? T
 doing forces? T
Weights: 206786us.
Particion 0: 5387010
Particion 1: 5364370
Particion 2: 5541850
Relacion max / min = 1.033085
--> Thread OMP: 4
--> Thread CPU: 3
--> Thread GPU: 1
--> Correccion de cubos chicos: 250000
--> Puntos de separacion: 200
Timer functions: 2121us.
MM point charges: 0
XC energy: 0
XC energy: 0
XC energy: 0
XC energy: 0
XC energy: 0
XC energy: 0
XC energy: 0
XC energy: 0
XC energy: 0
XC energy: 0
XC energy: 0
XC energy: 0
XC energy: 0
XC energy: 0
 CONVERGED AT          14 ITERATIONS
XC energy: -62.6638
 
    ╔════════════════════════════════════════════╗
    ║        ENERGY CONTRIBUTIONS IN A.U.        ║
    ╠══════════════════╦═════════════════════════╣
    ║   ONE ELECTRON   ║     -1542.4843163       ║
    ╠══════════════════╬═════════════════════════╣
    ║   COULOMB        ║       540.0137792       ║
    ╠══════════════════╬═════════════════════════╣
    ║   NUCLEAR        ║       105.2675877       ║
    ╠══════════════════╬═════════════════════════╣
    ║   EXC. - CORR.   ║       -62.6637854       ║
    ╠══════════════════╬═════════════════════════╣
    ║   TOTAL          ║      -959.8667348       ║
    ╚══════════════════╩═════════════════════════╝
 
 Lio  E(H)  -959.866734779364     
 Lio  E(eV)  -26119.3139540106     
XC energy: -62.6638
 

hybrid: Energy Decomposition (eV):
Esiesta:     -26119.313954

hybrid: Total Free Atoms:      6

hybrid: Atomic forces (eV/Ang):
     1    0.381999   -0.654252    0.100029
     2    0.122777   -0.466349   -0.458751
     3   -0.873512    0.662230    0.227815
     4    0.115934    0.863487    0.025272
     5    0.127069   -0.070082    0.139150
     6    0.160796   -0.338333    0.054192
-------------------------------------------
 Tot    0.035064   -0.003299    0.087706
-------------------------------------------
 Max    0.873512  free, atom      3
 Res    0.423204  sqrt( Sum f_i^2 / 3N )
-------------------------------------------
 Max    0.873512  cons, atom      3

iocg: Reading CG continuation file
 centrando sistema
  Econtribution          0.000000       -26119.313954            0.000000            0.000000            0.000000       -26119.313954
 doing SCF_in
 atoms QM, MM, totals           6           0           6
 doing SCF? T
 doing forces? T
Weights: 3016us.
Particion 0: 5387010
Particion 1: 5364370
Particion 2: 5541850
Relacion max / min = 1.033085
--> Thread OMP: 4
--> Thread CPU: 3
--> Thread GPU: 1
--> Correccion de cubos chicos: 250000
--> Puntos de separacion: 200
Timer functions: 4626us.
MM point charges: 0
XC energy: 0
XC energy: 0
 CONVERGED AT           2 ITERATIONS
XC energy: -62.6638
 Lio  E(H)  -959.866734679530     
 Lio  E(eV)  -26119.3139512940     
XC energy: -62.6638
<====== Deinitializing G2G ======>
>> End of run:  22-DEC-2017  18:12:00
HYBRID 2.0 -- [ Lio-hybrid ] (22 Dec 2017)
Compiler flags: ifort -w -O2 -mp
SERIAL version
>> Start of run:  22-DEC-2017  18:12:59

                           ***********************       
                           *  WELCOME TO HYBRID  *       
                           ***********************       

reinit: Reading from standard input
************************** Dump of input data file ****************************
SystemName     cut5
SystemLabel    cut5
CenterMolecule T
NumberOfAtoms         6
NumberOfSpecies      3
NetCharge -1.0
FixSpin  T
TotalSpin 0.0
MD.MaxForceTol    0.04 eV/Ang
NumberOfSolventAtoms      0
%block ChemicalSpeciesLabel
       1   6  C
       2   1  H
       3  17  Cl
%endblock ChemicalSpeciesLabel
AtomicCoordinatesFormat  Ang
%block AtomicCoordinatesAndAtomicSpecies
  35.68700  34.50600  35.99000         1
  35.98000  34.12000  35.08700         2
  36.08900  35.73700  36.24600         2
  34.74800  34.44800  36.44800         2
  33.49600  36.20600  33.44400         3
  36.78400  33.67400  37.23300         3
%endblock AtomicCoordinatesAndAtomicSpecies
%block SoluteAtomTypes
  CT  C1    CHC
  HC  H1    CHC
  HC  H2    CHC
  HC  H3    CHC
  Cl  CL    CHC
  Cl  CL    CLO
%endblock SoluteAtomTypes
PAO.BasisType split
PAO.BasisSize       DZP
PAO.EnergyShift      25 meV
PAO.SplitNorm       0.15
WriteMDXmol F
WriteMullikenPop 0
XC.functional       GGA
XC.authors          PBE
MeshCutoff         150.0 Ry
SpinPolarized        T
MaxSCFIterations    80
DM.MixingWeight      0.1
DM.NumberPulay       3
DM.UseSaveDM   T
MD.USeSaveXV   T
MD.UseSaveCG   T
LongOutput    F
OptimizationScheme 1
MD.TypeOfRun    CG
MD.NumCGsteps   0
%block CutOffRadius
QM  0.2
QMMM 100.0
MM 80.0
BLO 80.0
%endblock CutOffRadius
%block SolventInput
%endblock SolventInput
************************** End of input data file *****************************

reinit: -----------------------------------------------------------------------
reinit: System Name: cut5                                                       
reinit: -----------------------------------------------------------------------
reinit: System Label: cut5                
reinit: -----------------------------------------------------------------------

hybrid: Running with no MM atoms
 
read:***********************************************************************
read: Atomic-coordinates input format  =     Cartesian coordinates (in Ang)
read: Total number of electrons        =    44
 opt_scheme vale           1
read: Dynamics option                  =     CG coord. optimization
read: Use continuation files for CG    =     T
read: Use continuation files for XV    =     T
read: Maximum number of CG moves       =     0
read: Max atomic displ per move        =     0.2000  Bohr
read: Force tolerance                  =     0.0016  Ry/Bohr
read: Write coordinates each           =     1  steps
read: MM x QM steps                    =     1
read: Write forces QM-MM               =     1
read: ***********************************************************************
 buscando cut5.XV                          

ioxv: Reading coordinates and velocities from file
 File lio.in               not found. Using defaults.
<====== Initializing G2G ======>
GPU Device used: GeForce GTX 580
Kernels: gpu
Kernels: cpu
Using 3 CPU Threads and 1 GPU Threads
 JOB STARTED NOW
vie dic 22 18:12:59 -03 2017
basis set corresponding to Z   7 was not used
basis set corresponding to Z  26 was not used
basis set corresponding to Z  16 was not used
basis set corresponding to Z   8 was not used
<======= GPU Code Initialization ========>
atoms: 6
max atoms: 6
number of gaussians: 59
do_forces: false
s: 17 p: 8 d: 3
m: 59 nco: 22
 nco: 22
density basis: s: 37 p: 11 d: 11
density basis: m: 136
Using device 0 for analytic integral calculations

hybrid: unit cell vectors (Ang) from siesta run:
        0.000000    0.000000    0.000000
        0.000000    0.000000    0.000000
        0.000000    0.000000    0.000000

hybrid:                 ==============================
                            Begin CG move =      0
                        ==============================
 Optimization level:            1
 defino cuts 
 doing SCF_in
 atoms QM, MM, totals           6           0           6
 doing SCF? T
 doing forces? T
Weights: 209888us.
Particion 0: 5304110
Particion 1: 5316340
Particion 2: 5285430
Relacion max / min = 1.005848
--> Thread OMP: 4
--> Thread CPU: 3
--> Thread GPU: 1
--> Correccion de cubos chicos: 250000
--> Puntos de separacion: 200
Timer functions: 2208us.
MM point charges: 0
XC energy: 0
XC energy: 0
XC energy: 0
XC energy: 0
XC energy: 0
XC energy: 0
XC energy: 0
XC energy: 0
XC energy: 0
XC energy: 0
XC energy: 0
XC energy: 0
XC energy: 0
XC energy: 0
XC energy: 0
 CONVERGED AT          15 ITERATIONS
XC energy: -62.6562
 
    ╔════════════════════════════════════════════╗
    ║        ENERGY CONTRIBUTIONS IN A.U.        ║
    ╠══════════════════╦═════════════════════════╣
    ║   ONE ELECTRON   ║     -1547.2077040       ║
    ╠══════════════════╬═════════════════════════╣
    ║   COULOMB        ║       542.4388278       ║
    ╠══════════════════╬═════════════════════════╣
    ║   NUCLEAR        ║       107.5584669       ║
    ╠══════════════════╬═════════════════════════╣
    ║   EXC. - CORR.   ║       -62.6562430       ║
    ╠══════════════════╬═════════════════════════╣
    ║   TOTAL          ║      -959.8666523       ║
    ╚══════════════════╩═════════════════════════╝
 
 Lio  E(H)  -959.866652344005     
 Lio  E(eV)  -26119.3117108294     
XC energy: -62.6562
 

hybrid: Energy Decomposition (eV):
Esiesta:     -26119.311711

hybrid: Total Free Atoms:      6

hybrid: Atomic forces (eV/Ang):
     1    0.000000    0.000000    0.000000
     2    0.000000    0.000000    0.000000
     3    0.000000    0.000000    0.000000
     4    0.000000    0.000000    0.000000
     5    0.000000    0.000000    0.000000
     6    0.000000    0.000000    0.000000
-------------------------------------------
 Tot    0.000000    0.000000    0.000000
-------------------------------------------
 Max    0.000000  free, atom      1
 Res    0.000000  sqrt( Sum f_i^2 / 3N )
-------------------------------------------
 Max    0.000000  cons, atom      1

iocg: Reading CG continuation file
 centrando sistema
  Econtribution          0.000000       -26119.311711            0.000000            0.000000            0.000000       -26119.311711
 doing SCF_in
 atoms QM, MM, totals           6           0           6
 doing SCF? T
 doing forces? T
Weights: 2966us.
Particion 0: 5304110
Particion 1: 5316340
Particion 2: 5285430
Relacion max / min = 1.005848
--> Thread OMP: 4
--> Thread CPU: 3
--> Thread GPU: 1
--> Correccion de cubos chicos: 250000
--> Puntos de separacion: 200
Timer functions: 1822us.
MM point charges: 0
XC energy: 0
XC energy: 0
 CONVERGED AT           2 ITERATIONS
XC energy: -62.6562
 Lio  E(H)  -959.866652513836     
 Lio  E(eV)  -26119.3117154508     
XC energy: -62.6562
<====== Deinitializing G2G ======>
>> End of run:  22-DEC-2017  18:13:01
