HYBRID 1.1.17 -- [ MMxQM w/ LA ] (31 Ago 2005)
Architecture  : ifc-mkl
Compiler flags: ifort -w -O2 -mp  -g -check bounds -traceback -check all -fp-stack-check
SERIAL version

hybrid: Running in serial mode
>> Start of run:  30-NOV-2017  13:17:08

                           ***********************       
                           *  WELCOME TO HYBRID  *       
                           ***********************       

reinit: Reading from standard input
************************** Dump of input data file ****************************
SystemName     cut5
SystemLabel    cut5
CenterMolecule T
NumberOfAtoms         6
NumberOfSpecies      3
NetCharge -1.0
FixSpin  T
TotalSpin 0.0
MD.MaxForceTol    0.04 eV/Ang
NumberOfSolventAtoms      0
%block ChemicalSpeciesLabel
       1   6  C
       2   1  H
       3  17  Cl
%endblock ChemicalSpeciesLabel
AtomicCoordinatesFormat  Ang
%block AtomicCoordinatesAndAtomicSpecies
  35.68700  34.50600  35.99000         1
  35.98000  34.12000  35.08700         2
  36.08900  35.73700  36.24600         2
  34.74800  34.44800  36.44800         2
  33.49600  36.20600  33.44400         3
  36.78400  33.67400  37.23300         3
%endblock AtomicCoordinatesAndAtomicSpecies
%block SoluteAtomTypes
  CT  C1    CHC
  HC  H1    CHC
  HC  H2    CHC
  HC  H3    CHC
  Cl  CL    CHC
  Cl  CL    CLO
%endblock SoluteAtomTypes
PAO.BasisType split
PAO.BasisSize       DZP
PAO.EnergyShift      25 meV
PAO.SplitNorm       0.15
WriteMDXmol F
WriteMullikenPop 0
XC.functional       GGA
XC.authors          PBE
MeshCutoff         150.0 Ry
SpinPolarized        T
MaxSCFIterations    80
DM.MixingWeight      0.1
DM.NumberPulay       3
DM.UseSaveDM   T
MD.USeSaveXV   T
MD.UseSaveCG   T
LongOutput    F
MD.TypeOfRun    CG
MD.NumCGsteps   0
%block CutOffRadius
QM  0.2
QMMM 100.0
MM 80.0
BLO 80.0
%endblock CutOffRadius
%block SolventInput
%endblock SolventInput
************************** End of input data file *****************************

reinit: -----------------------------------------------------------------------
reinit: System Name: cut5                                                       
reinit: -----------------------------------------------------------------------
reinit: System Label: cut5                
reinit: -----------------------------------------------------------------------

hybrid: Running with no MM atoms
 
read:***********************************************************************
read: Atomic-coordinates input format  =     Cartesian coordinates (in Ang)
read: Total number of electrons        =    22
read: Dynamics option                  =     CG coord. optimization
read: Use continuation files for CG    =     T
read: Use continuation files for XV    =     T
read: Maximum number of CG moves       =     0
read: Max atomic displ per move        =     0.2000  Bohr
read: Force tolerance                  =     0.0016  Ry/Bohr
read: Write coordinates each           =     1  steps
read: Mulliken population analysis     =     0
read: MM x QM steps                    =     1
read: Write forces QM-MM               =     1
read: ***********************************************************************
 buscando cut5.XV                          

ioxv: WARNING: XV file not found
 File lio.in               not found. Using defaults.
<====== Initializing G2G ======>
GPU Device used: GeForce GTX 580
Kernels: gpu
Kernels: cpu
Using 3 CPU Threads and 1 GPU Threads
 JOB STARTED NOW
jue nov 30 13:17:08 ART 2017
basis set corresponding to Z   7 was not used
basis set corresponding to Z  26 was not used
basis set corresponding to Z  16 was not used
basis set corresponding to Z   8 was not used
<======= GPU Code Initialization ========>
atoms: 6
max atoms: 6
number of gaussians: 59
do_forces: false
s: 17 p: 8 d: 3
m: 59 nco: 22
 nco: 22
density basis: s: 37 p: 11 d: 11
density basis: m: 136
Using device 0 for analytic integral calculations

hybrid: unit cell vectors (Ang) from siesta run:
        0.000000    0.000000    0.000000
        0.000000    0.000000    0.000000
        0.000000    0.000000    0.000000

center: System centered in cell

hybrid:                 ==============================
                            Begin CG move =      0
                        ==============================
 nivel de optimizacion:            3
 defino cuts 
 doing SCF_in
 atoms QM, MM, totals           6           0           6
 doing SCF? T
 doing forces? T
Weights: 205733us.
Particion 0: 5575440
Particion 1: 5738810
Particion 2: 5551360
Relacion max / min = 1.033767
--> Thread OMP: 4
--> Thread CPU: 3
--> Thread GPU: 1
--> Correccion de cubos chicos: 250000
--> Puntos de separacion: 200
Timer functions: 4879us.
MM point charges: 0
TIMER [aint_qmmm_fock]: 2248us.
TIMER [cholesky]: 1787us.
TIMER [initial guess]: 4375us.
iteracion total: 56779us.
XC energy: 0
TIMER [commutators + basechange]: 238us.
TIMER [Fock damping]: 107us.
TIMER [actualiza rmm]: 419us.
TIMER [scf - fock diagonalization]: 628us.
TIMER [dspev]: 648us.
TIMER [coeff]: 68us.
TIMER [dens_GPU]: 24us.
TIMER [otras cosas]: 33us.
TIMER [Total iter]: 73008us.
iteracion total: 55975us.
XC energy: 0
TIMER [commutators + basechange]: 211us.
TIMER [Fock damping]: 77us.
TIMER [actualiza rmm]: 342us.
TIMER [scf - fock diagonalization]: 529us.
TIMER [dspev]: 546us.
TIMER [coeff]: 60us.
TIMER [dens_GPU]: 21us.
TIMER [otras cosas]: 29us.
TIMER [Total iter]: 70137us.
iteracion total: 87075us.
XC energy: 0
TIMER [commutators + basechange]: 218us.
TIMER [actualiza rmm]: 272us.
TIMER [diis]: 130us.
TIMER [scf - fock diagonalization]: 533us.
TIMER [dspev]: 551us.
TIMER [coeff]: 61us.
TIMER [dens_GPU]: 22us.
TIMER [otras cosas]: 30us.
TIMER [Total iter]: 101849us.
iteracion total: 56103us.
XC energy: 0
TIMER [commutators + basechange]: 214us.
TIMER [actualiza rmm]: 272us.
TIMER [diis]: 86us.
TIMER [scf - fock diagonalization]: 530us.
TIMER [dspev]: 548us.
TIMER [coeff]: 60us.
TIMER [dens_GPU]: 22us.
TIMER [otras cosas]: 30us.
TIMER [Total iter]: 70221us.
iteracion total: 91267us.
XC energy: 0
TIMER [commutators + basechange]: 215us.
TIMER [actualiza rmm]: 275us.
TIMER [diis]: 99us.
TIMER [scf - fock diagonalization]: 541us.
TIMER [dspev]: 560us.
TIMER [coeff]: 62us.
TIMER [dens_GPU]: 22us.
TIMER [otras cosas]: 31us.
TIMER [Total iter]: 108798us.
iteracion total: 57930us.
XC energy: 0
TIMER [commutators + basechange]: 220us.
TIMER [actualiza rmm]: 289us.
TIMER [diis]: 110us.
TIMER [scf - fock diagonalization]: 546us.
TIMER [dspev]: 565us.
TIMER [coeff]: 63us.
TIMER [dens_GPU]: 23us.
TIMER [otras cosas]: 33us.
TIMER [Total iter]: 72346us.
iteracion total: 94547us.
XC energy: 0
TIMER [commutators + basechange]: 224us.
TIMER [actualiza rmm]: 294us.
TIMER [diis]: 122us.
TIMER [scf - fock diagonalization]: 523us.
TIMER [dspev]: 542us.
TIMER [coeff]: 61us.
TIMER [dens_GPU]: 23us.
TIMER [otras cosas]: 32us.
TIMER [Total iter]: 109000us.
iteracion total: 57914us.
XC energy: 0
TIMER [commutators + basechange]: 552us.
TIMER [actualiza rmm]: 635us.
TIMER [diis]: 135us.
TIMER [scf - fock diagonalization]: 532us.
TIMER [dspev]: 551us.
TIMER [coeff]: 61us.
TIMER [dens_GPU]: 23us.
TIMER [otras cosas]: 32us.
TIMER [Total iter]: 72473us.
iteracion total: 72351us.
XC energy: 0
TIMER [commutators + basechange]: 222us.
TIMER [actualiza rmm]: 301us.
TIMER [diis]: 144us.
TIMER [scf - fock diagonalization]: 524us.
TIMER [dspev]: 542us.
TIMER [coeff]: 63us.
TIMER [dens_GPU]: 22us.
TIMER [otras cosas]: 32us.
TIMER [Total iter]: 96441us.
iteracion total: 82901us.
XC energy: 0
TIMER [commutators + basechange]: 218us.
TIMER [actualiza rmm]: 290us.
TIMER [diis]: 157us.
TIMER [scf - fock diagonalization]: 525us.
TIMER [dspev]: 544us.
TIMER [coeff]: 61us.
TIMER [dens_GPU]: 22us.
TIMER [otras cosas]: 31us.
TIMER [Total iter]: 102075us.
iteracion total: 58377us.
XC energy: 0
TIMER [commutators + basechange]: 214us.
TIMER [actualiza rmm]: 296us.
TIMER [diis]: 165us.
TIMER [scf - fock diagonalization]: 516us.
TIMER [dspev]: 534us.
TIMER [coeff]: 60us.
TIMER [dens_GPU]: 22us.
TIMER [otras cosas]: 31us.
TIMER [Total iter]: 72626us.
iteracion total: 93613us.
XC energy: 0
TIMER [commutators + basechange]: 225us.
TIMER [actualiza rmm]: 304us.
TIMER [diis]: 179us.
TIMER [scf - fock diagonalization]: 533us.
TIMER [dspev]: 553us.
TIMER [coeff]: 61us.
TIMER [dens_GPU]: 22us.
TIMER [otras cosas]: 31us.
TIMER [Total iter]: 108117us.
iteracion total: 58196us.
XC energy: 0
TIMER [commutators + basechange]: 215us.
TIMER [actualiza rmm]: 297us.
TIMER [diis]: 188us.
TIMER [scf - fock diagonalization]: 520us.
TIMER [dspev]: 539us.
TIMER [coeff]: 60us.
TIMER [dens_GPU]: 22us.
TIMER [otras cosas]: 31us.
TIMER [Total iter]: 72623us.
iteracion total: 61612us.
XC energy: 0
TIMER [commutators + basechange]: 213us.
TIMER [actualiza rmm]: 294us.
TIMER [diis]: 201us.
TIMER [scf - fock diagonalization]: 521us.
TIMER [dspev]: 539us.
TIMER [coeff]: 60us.
TIMER [dens_GPU]: 22us.
TIMER [otras cosas]: 31us.
TIMER [Total iter]: 76222us.
iteracion total: 65895us.
XC energy: 0
TIMER [commutators + basechange]: 215us.
TIMER [actualiza rmm]: 303us.
TIMER [diis]: 210us.
TIMER [scf - fock diagonalization]: 519us.
TIMER [dspev]: 538us.
TIMER [coeff]: 60us.
TIMER [dens_GPU]: 22us.
TIMER [otras cosas]: 31us.
TIMER [Total iter]: 80327us.
iteracion total: 59258us.
XC energy: 0
TIMER [commutators + basechange]: 218us.
TIMER [actualiza rmm]: 305us.
TIMER [diis]: 251us.
TIMER [scf - fock diagonalization]: 511us.
TIMER [dspev]: 529us.
TIMER [coeff]: 60us.
TIMER [dens_GPU]: 21us.
TIMER [otras cosas]: 30us.
TIMER [Total iter]: 73514us.
iteracion total: 59184us.
XC energy: 0
TIMER [commutators + basechange]: 213us.
TIMER [actualiza rmm]: 303us.
TIMER [diis]: 253us.
TIMER [scf - fock diagonalization]: 516us.
TIMER [dspev]: 536us.
TIMER [coeff]: 61us.
TIMER [dens_GPU]: 22us.
TIMER [otras cosas]: 31us.
TIMER [Total iter]: 76775us.
iteracion total: 59454us.
XC energy: 0
TIMER [commutators + basechange]: 214us.
TIMER [actualiza rmm]: 305us.
TIMER [diis]: 272us.
TIMER [scf - fock diagonalization]: 512us.
TIMER [dspev]: 530us.
TIMER [coeff]: 1293us.
TIMER [dens_GPU]: 31us.
TIMER [otras cosas]: 40us.
TIMER [Total iter]: 76860us.
 CONVERGED AT          18 ITERATIONS
iteracion total: 54999us.
XC energy: -62.636
 
    ╔════════════════════════════════════════════╗
    ║        ENERGY CONTRIBUTIONS IN A.U.        ║
    ╠══════════════════╦═════════════════════════╣
    ║   ONE ELECTRON   ║     -1529.1267948       ║
    ╠══════════════════╬═════════════════════════╣
    ║   COULOMB        ║       533.1654773       ║
    ╠══════════════════╬═════════════════════════╣
    ║   NUCLEAR        ║        98.7687124       ║
    ╠══════════════════╬═════════════════════════╣
    ║   EXC. - CORR.   ║       -62.6359746       ║
    ╠══════════════════╬═════════════════════════╣
    ║   TOTAL          ║      -959.8285796       ║
    ╚══════════════════╩═════════════════════════╝
 
TIMER [SCF]: 1s. 803904us.
TIMER [SCF_full]: 1s. 803911us.
 Lio  E(H)  -959.828579577990     
 Lio  E(eV)  -26118.2756977116     
TIMER [int1G]: 1052us.
TIMER [intSG]: 230us.
iteracion total: 91798us.
XC energy: -62.636
TIMER [ExcG]: 91840us.
TIMER [CoulG]: 16111us.
TIMER [int3G]: 108363us.
 

hybrid: Energy Decomposition (eV):
Esiesta:     -26118.275698

hybrid: Total Free Atoms:      6

hybrid: Atomic forces (eV/Ang):
     1    9.348818    8.022384   11.989663
     2    0.095632   -1.439304   -5.333197
     3   -2.890013   -7.039761   -3.216833
     4   -3.863426   -0.754240   -0.415172
     5    0.627770   -0.521784    0.737708
     6   -3.290342    1.699469   -3.726797
-------------------------------------------
 Tot    0.028438   -0.033237    0.035371
-------------------------------------------
 Max   11.989663  free, atom      1
 Res    4.937243  sqrt( Sum f_i^2 / 3N )
-------------------------------------------
 Max   11.989663  cons, atom      1

cgvc: WARNING: CG file not found
 centrando sistema
  Econtribution          0.000000       -26118.275698            0.000000            0.000000            0.000000            0.000000       -26118.275698
<====== Deinitializing G2G ======>
>> End of run:  30-NOV-2017  13:17:10
HYBRID 1.1.17 -- [ MMxQM w/ LA ] (31 Ago 2005)
Architecture  : ifc-mkl
Compiler flags: ifort -w -O2 -mp  -g -check bounds -traceback -check all -fp-stack-check
SERIAL version

hybrid: Running in serial mode
>> Start of run:  30-NOV-2017  13:28:54

                           ***********************       
                           *  WELCOME TO HYBRID  *       
                           ***********************       

reinit: Reading from standard input
************************** Dump of input data file ****************************
SystemName     cut5
SystemLabel    cut5
CenterMolecule T
NumberOfAtoms         6
NumberOfSpecies      3
NetCharge -1.0
FixSpin  T
TotalSpin 0.0
MD.MaxForceTol    0.04 eV/Ang
NumberOfSolventAtoms      0
%block ChemicalSpeciesLabel
       1   6  C
       2   1  H
       3  17  Cl
%endblock ChemicalSpeciesLabel
AtomicCoordinatesFormat  Ang
%block AtomicCoordinatesAndAtomicSpecies
  35.68700  34.50600  35.99000         1
  35.98000  34.12000  35.08700         2
  36.08900  35.73700  36.24600         2
  34.74800  34.44800  36.44800         2
  33.49600  36.20600  33.44400         3
  36.78400  33.67400  37.23300         3
%endblock AtomicCoordinatesAndAtomicSpecies
%block SoluteAtomTypes
  CT  C1    CHC
  HC  H1    CHC
  HC  H2    CHC
  HC  H3    CHC
  Cl  CL    CHC
  Cl  CL    CLO
%endblock SoluteAtomTypes
PAO.BasisType split
PAO.BasisSize       DZP
PAO.EnergyShift      25 meV
PAO.SplitNorm       0.15
WriteMDXmol F
WriteMullikenPop 0
XC.functional       GGA
XC.authors          PBE
MeshCutoff         150.0 Ry
SpinPolarized        T
MaxSCFIterations    80
DM.MixingWeight      0.1
DM.NumberPulay       3
DM.UseSaveDM   T
MD.USeSaveXV   T
MD.UseSaveCG   T
LongOutput    F
MD.TypeOfRun    CG
MD.NumCGsteps   0
%block CutOffRadius
QM  0.2
QMMM 100.0
MM 80.0
BLO 80.0
%endblock CutOffRadius
%block SolventInput
%endblock SolventInput
************************** End of input data file *****************************

reinit: -----------------------------------------------------------------------
reinit: System Name: cut5                                                       
reinit: -----------------------------------------------------------------------
reinit: System Label: cut5                
reinit: -----------------------------------------------------------------------

hybrid: Running with no MM atoms
 
read:***********************************************************************
read: Atomic-coordinates input format  =     Cartesian coordinates (in Ang)
read: Total number of electrons        =    22
read: Dynamics option                  =     CG coord. optimization
read: Use continuation files for CG    =     T
read: Use continuation files for XV    =     T
read: Maximum number of CG moves       =     0
read: Max atomic displ per move        =     0.2000  Bohr
read: Force tolerance                  =     0.0016  Ry/Bohr
read: Write coordinates each           =     1  steps
read: Mulliken population analysis     =     0
read: MM x QM steps                    =     1
read: Write forces QM-MM               =     1
read: ***********************************************************************
 buscando cut5.XV                          

ioxv: Reading coordinates and velocities from file
 File lio.in               not found. Using defaults.
<====== Initializing G2G ======>
GPU Device used: GeForce GTX 580
Kernels: gpu
Kernels: cpu
Using 3 CPU Threads and 1 GPU Threads
 JOB STARTED NOW
jue nov 30 13:28:54 ART 2017
basis set corresponding to Z   7 was not used
basis set corresponding to Z  26 was not used
basis set corresponding to Z  16 was not used
basis set corresponding to Z   8 was not used
<======= GPU Code Initialization ========>
atoms: 6
max atoms: 6
number of gaussians: 59
do_forces: false
s: 17 p: 8 d: 3
m: 59 nco: 22
 nco: 22
density basis: s: 37 p: 11 d: 11
density basis: m: 136
Using device 0 for analytic integral calculations

hybrid: unit cell vectors (Ang) from siesta run:
        0.000000    0.000000    0.000000
        0.000000    0.000000    0.000000
        0.000000    0.000000    0.000000

hybrid:                 ==============================
                            Begin CG move =      0
                        ==============================
 nivel de optimizacion:            3
 defino cuts 
 doing SCF_in
 atoms QM, MM, totals           6           0           6
 doing SCF? T
 doing forces? T
Weights: 349293us.
Particion 0: 5514880
Particion 1: 5515690
Particion 2: 5546290
Relacion max / min = 1.005696
--> Thread OMP: 4
--> Thread CPU: 3
--> Thread GPU: 1
--> Correccion de cubos chicos: 250000
--> Puntos de separacion: 200
Timer functions: 7278us.
MM point charges: 0
TIMER [aint_qmmm_fock]: 2521us.
TIMER [cholesky]: 5867us.
TIMER [initial guess]: 7348us.
iteracion total: 137995us.
XC energy: 0
TIMER [commutators + basechange]: 222us.
TIMER [Fock damping]: 94us.
TIMER [actualiza rmm]: 385us.
TIMER [scf - fock diagonalization]: 621us.
TIMER [dspev]: 642us.
TIMER [coeff]: 69us.
TIMER [dens_GPU]: 22us.
TIMER [otras cosas]: 31us.
TIMER [Total iter]: 220980us.
iteracion total: 344535us.
XC energy: 0
TIMER [commutators + basechange]: 214us.
TIMER [Fock damping]: 86us.
TIMER [actualiza rmm]: 359us.
TIMER [scf - fock diagonalization]: 541us.
TIMER [dspev]: 561us.
TIMER [coeff]: 62us.
TIMER [dens_GPU]: 22us.
TIMER [otras cosas]: 32us.
TIMER [Total iter]: 398380us.
iteracion total: 364412us.
XC energy: 0
TIMER [commutators + basechange]: 221us.
TIMER [actualiza rmm]: 272us.
TIMER [diis]: 124us.
TIMER [scf - fock diagonalization]: 507us.
TIMER [dspev]: 524us.
TIMER [coeff]: 59us.
TIMER [dens_GPU]: 20us.
TIMER [otras cosas]: 28us.
TIMER [Total iter]: 394595us.
iteracion total: 203792us.
XC energy: 0
TIMER [commutators + basechange]: 204us.
TIMER [actualiza rmm]: 260us.
TIMER [diis]: 82us.
TIMER [scf - fock diagonalization]: 521us.
TIMER [dspev]: 540us.
TIMER [coeff]: 60us.
TIMER [dens_GPU]: 20us.
TIMER [otras cosas]: 29us.
TIMER [Total iter]: 219579us.
iteracion total: 343654us.
XC energy: 0
TIMER [commutators + basechange]: 206us.
TIMER [actualiza rmm]: 263us.
TIMER [diis]: 99us.
TIMER [scf - fock diagonalization]: 516us.
TIMER [dspev]: 534us.
TIMER [coeff]: 60us.
TIMER [dens_GPU]: 21us.
TIMER [otras cosas]: 30us.
TIMER [Total iter]: 376660us.
iteracion total: 420986us.
XC energy: 0
TIMER [commutators + basechange]: 205us.
TIMER [actualiza rmm]: 266us.
TIMER [diis]: 104us.
TIMER [scf - fock diagonalization]: 512us.
TIMER [dspev]: 530us.
TIMER [coeff]: 59us.
TIMER [dens_GPU]: 20us.
TIMER [otras cosas]: 28us.
TIMER [Total iter]: 446863us.
iteracion total: 102533us.
XC energy: 0
TIMER [commutators + basechange]: 207us.
TIMER [actualiza rmm]: 273us.
TIMER [diis]: 124us.
TIMER [scf - fock diagonalization]: 517us.
TIMER [dspev]: 536us.
TIMER [coeff]: 60us.
TIMER [dens_GPU]: 21us.
TIMER [otras cosas]: 29us.
TIMER [Total iter]: 171014us.
iteracion total: 324993us.
XC energy: 0
TIMER [commutators + basechange]: 204us.
TIMER [actualiza rmm]: 276us.
TIMER [diis]: 133us.
TIMER [scf - fock diagonalization]: 518us.
TIMER [dspev]: 537us.
TIMER [coeff]: 60us.
TIMER [dens_GPU]: 21us.
TIMER [otras cosas]: 29us.
TIMER [Total iter]: 349465us.
iteracion total: 248175us.
XC energy: 0
TIMER [commutators + basechange]: 205us.
TIMER [actualiza rmm]: 273us.
TIMER [diis]: 136us.
TIMER [scf - fock diagonalization]: 509us.
TIMER [dspev]: 527us.
TIMER [coeff]: 60us.
TIMER [dens_GPU]: 20us.
TIMER [otras cosas]: 28us.
TIMER [Total iter]: 282648us.
iteracion total: 197023us.
XC energy: 0
TIMER [commutators + basechange]: 216us.
TIMER [actualiza rmm]: 289us.
TIMER [diis]: 157us.
TIMER [scf - fock diagonalization]: 517us.
TIMER [dspev]: 544us.
TIMER [coeff]: 60us.
TIMER [dens_GPU]: 21us.
TIMER [otras cosas]: 29us.
TIMER [Total iter]: 317854us.
iteracion total: 245468us.
XC energy: 0
TIMER [commutators + basechange]: 211us.
TIMER [actualiza rmm]: 296us.
TIMER [diis]: 166us.
TIMER [scf - fock diagonalization]: 529us.
TIMER [dspev]: 549us.
TIMER [coeff]: 60us.
TIMER [dens_GPU]: 21us.
TIMER [otras cosas]: 29us.
TIMER [Total iter]: 271460us.
iteracion total: 291744us.
XC energy: 0
TIMER [commutators + basechange]: 204us.
TIMER [actualiza rmm]: 278us.
TIMER [diis]: 171us.
TIMER [scf - fock diagonalization]: 507us.
TIMER [dspev]: 525us.
TIMER [coeff]: 66us.
TIMER [dens_GPU]: 20us.
TIMER [otras cosas]: 29us.
TIMER [Total iter]: 363633us.
iteracion total: 294299us.
XC energy: 0
TIMER [commutators + basechange]: 205us.
TIMER [actualiza rmm]: 284us.
TIMER [diis]: 181us.
TIMER [scf - fock diagonalization]: 506us.
TIMER [dspev]: 523us.
TIMER [coeff]: 59us.
TIMER [dens_GPU]: 21us.
TIMER [otras cosas]: 29us.
TIMER [Total iter]: 346640us.
iteracion total: 151739us.
XC energy: 0
TIMER [commutators + basechange]: 205us.
TIMER [actualiza rmm]: 286us.
TIMER [diis]: 202us.
TIMER [scf - fock diagonalization]: 527us.
TIMER [dspev]: 546us.
TIMER [coeff]: 60us.
TIMER [dens_GPU]: 21us.
TIMER [otras cosas]: 29us.
TIMER [Total iter]: 181915us.
iteracion total: 253693us.
XC energy: 0
TIMER [commutators + basechange]: 283us.
TIMER [actualiza rmm]: 367us.
TIMER [diis]: 206us.
TIMER [scf - fock diagonalization]: 510us.
TIMER [dspev]: 528us.
TIMER [coeff]: 60us.
TIMER [dens_GPU]: 21us.
TIMER [otras cosas]: 29us.
TIMER [Total iter]: 285639us.
iteracion total: 351226us.
XC energy: 0
TIMER [commutators + basechange]: 205us.
TIMER [actualiza rmm]: 294us.
TIMER [diis]: 251us.
TIMER [scf - fock diagonalization]: 508us.
TIMER [dspev]: 526us.
TIMER [coeff]: 60us.
TIMER [dens_GPU]: 21us.
TIMER [otras cosas]: 29us.
TIMER [Total iter]: 381560us.
 CONVERGED AT          16 ITERATIONS
iteracion total: 263523us.
XC energy: -62.6452
 
    ╔════════════════════════════════════════════╗
    ║        ENERGY CONTRIBUTIONS IN A.U.        ║
    ╠══════════════════╦═════════════════════════╣
    ║   ONE ELECTRON   ║     -1531.5265560       ║
    ╠══════════════════╬═════════════════════════╣
    ║   COULOMB        ║       534.3736359       ║
    ╠══════════════════╬═════════════════════════╣
    ║   NUCLEAR        ║        99.9479802       ║
    ╠══════════════════╬═════════════════════════╣
    ║   EXC. - CORR.   ║       -62.6451810       ║
    ╠══════════════════╬═════════════════════════╣
    ║   TOTAL          ║      -959.8501210       ║
    ╚══════════════════╩═════════════════════════╝
 
TIMER [SCF]: 5s. 673322us.
TIMER [SCF_full]: 5s. 673329us.
 Lio  E(H)  -959.850120964361     
 Lio  E(eV)  -26118.8618689094     
TIMER [int1G]: 3597us.
TIMER [intSG]: 243us.
iteracion total: 358363us.
XC energy: -62.6452
TIMER [ExcG]: 358401us.
TIMER [CoulG]: 46666us.
TIMER [int3G]: 405478us.
 

hybrid: Energy Decomposition (eV):
Esiesta:     -26118.861869

hybrid: Total Free Atoms:      6

hybrid: Atomic forces (eV/Ang):
     1    2.399483    5.964594    0.837757
     2   -1.321678    1.308396    0.377863
     3   -2.002861   -5.007778   -2.298379
     4   -1.122668   -0.137044   -1.219301
     5    0.180373   -0.149671    0.218318
     6    1.909632   -1.986801    2.135256
-------------------------------------------
 Tot    0.042281   -0.008303    0.051514
-------------------------------------------
 Max    5.964594  free, atom      1
 Res    2.297715  sqrt( Sum f_i^2 / 3N )
-------------------------------------------
 Max    5.964594  cons, atom      1

iocg: Reading CG continuation file
 centrando sistema
  Econtribution          0.000000       -26118.861869            0.000000            0.000000            0.000000            0.000000       -26118.861869
<====== Deinitializing G2G ======>
>> End of run:  30-NOV-2017  13:29:00
HYBRID 1.1.17 -- [ MMxQM w/ LA ] (31 Ago 2005)
Architecture  : 
Compiler flags: ifort -w -O2 -mp
SERIAL version

hybrid: Running in serial mode
>> Start of run:   1-DEC-2017  16:37:57

                           ***********************       
                           *  WELCOME TO HYBRID  *       
                           ***********************       

reinit: Reading from standard input
************************** Dump of input data file ****************************
SystemName     cut5
SystemLabel    cut5
CenterMolecule T
NumberOfAtoms         6
NumberOfSpecies      3
NetCharge -1.0
FixSpin  T
TotalSpin 0.0
MD.MaxForceTol    0.04 eV/Ang
NumberOfSolventAtoms      0
%block ChemicalSpeciesLabel
       1   6  C
       2   1  H
       3  17  Cl
%endblock ChemicalSpeciesLabel
AtomicCoordinatesFormat  Ang
%block AtomicCoordinatesAndAtomicSpecies
  35.68700  34.50600  35.99000         1
  35.98000  34.12000  35.08700         2
  36.08900  35.73700  36.24600         2
  34.74800  34.44800  36.44800         2
  33.49600  36.20600  33.44400         3
  36.78400  33.67400  37.23300         3
%endblock AtomicCoordinatesAndAtomicSpecies
%block SoluteAtomTypes
  CT  C1    CHC
  HC  H1    CHC
  HC  H2    CHC
  HC  H3    CHC
  Cl  CL    CHC
  Cl  CL    CLO
%endblock SoluteAtomTypes
PAO.BasisType split
PAO.BasisSize       DZP
PAO.EnergyShift      25 meV
PAO.SplitNorm       0.15
WriteMDXmol F
WriteMullikenPop 0
XC.functional       GGA
XC.authors          PBE
MeshCutoff         150.0 Ry
SpinPolarized        T
MaxSCFIterations    80
DM.MixingWeight      0.1
DM.NumberPulay       3
DM.UseSaveDM   T
MD.USeSaveXV   T
MD.UseSaveCG   T
LongOutput    F
MD.TypeOfRun    CG
MD.NumCGsteps   0
%block CutOffRadius
QM  0.2
QMMM 100.0
MM 80.0
BLO 80.0
%endblock CutOffRadius
%block SolventInput
%endblock SolventInput
************************** End of input data file *****************************

reinit: -----------------------------------------------------------------------
reinit: System Name: cut5                                                       
reinit: -----------------------------------------------------------------------
reinit: System Label: cut5                
reinit: -----------------------------------------------------------------------

hybrid: Running with no MM atoms
 
read:***********************************************************************
read: Atomic-coordinates input format  =     Cartesian coordinates (in Ang)
read: Total number of electrons        =    22
read: Dynamics option                  =     CG coord. optimization
read: Use continuation files for CG    =     T
read: Use continuation files for XV    =     T
read: Maximum number of CG moves       =     0
read: Max atomic displ per move        =     0.2000  Bohr
read: Force tolerance                  =     0.0016  Ry/Bohr
read: Write coordinates each           =     1  steps
read: Mulliken population analysis     =     0
read: MM x QM steps                    =     1
read: Write forces QM-MM               =     1
read: ***********************************************************************
 buscando cut5.XV                          

ioxv: Reading coordinates and velocities from file
 File lio.in               not found. Using defaults.
<====== Initializing G2G ======>
GPU Device used: GeForce GTX 580
Kernels: gpu
Kernels: cpu
Using 3 CPU Threads and 1 GPU Threads
 JOB STARTED NOW
vie dic  1 16:37:57 ART 2017
basis set corresponding to Z   7 was not used
basis set corresponding to Z  26 was not used
basis set corresponding to Z  16 was not used
basis set corresponding to Z   8 was not used
<======= GPU Code Initialization ========>
atoms: 6
max atoms: 6
number of gaussians: 59
do_forces: false
s: 17 p: 8 d: 3
m: 59 nco: 22
 nco: 22
density basis: s: 37 p: 11 d: 11
density basis: m: 136
Using device 0 for analytic integral calculations

hybrid: unit cell vectors (Ang) from siesta run:
        0.000000    0.000000    0.000000
        0.000000    0.000000    0.000000
        0.000000    0.000000    0.000000

hybrid:                 ==============================
                            Begin CG move =      0
                        ==============================
 nivel de optimizacion:            3
 defino cuts 
 doing SCF_in
 atoms QM, MM, totals           6           0           6
 doing SCF? T
 doing forces? T
Weights: 213463us.
Particion 0: 5733590
Particion 1: 5512340
Particion 2: 5541490
Relacion max / min = 1.040137
--> Thread OMP: 4
--> Thread CPU: 3
--> Thread GPU: 1
--> Correccion de cubos chicos: 250000
--> Puntos de separacion: 200
Timer functions: 2035us.
MM point charges: 0
TIMER [aint_qmmm_fock]: 2242us.
TIMER [cholesky]: 23016us.
TIMER [initial guess]: 75211us.
iteracion total: 79787us.
XC energy: 0
TIMER [commutators + basechange]: 211us.
TIMER [Fock damping]: 634us.
TIMER [actualiza rmm]: 914us.
TIMER [scf - fock diagonalization]: 1484us.
TIMER [dspev]: 1505us.
TIMER [coeff]: 67us.
TIMER [dens_GPU]: 59us.
TIMER [otras cosas]: 68us.
TIMER [Total iter]: 105073us.
iteracion total: 71491us.
XC energy: 0
TIMER [commutators + basechange]: 204us.
TIMER [Fock damping]: 223us.
TIMER [actualiza rmm]: 479us.
TIMER [scf - fock diagonalization]: 707us.
TIMER [dspev]: 725us.
TIMER [coeff]: 59us.
TIMER [dens_GPU]: 89us.
TIMER [otras cosas]: 97us.
TIMER [Total iter]: 97287us.
iteracion total: 62510us.
XC energy: 0
TIMER [commutators + basechange]: 212us.
TIMER [actualiza rmm]: 263us.
TIMER [diis]: 9405us.
TIMER [scf - fock diagonalization]: 6219us.
TIMER [dspev]: 6245us.
TIMER [coeff]: 63us.
TIMER [dens_GPU]: 91us.
TIMER [otras cosas]: 101us.
TIMER [Total iter]: 96838us.
iteracion total: 87621us.
XC energy: 0
TIMER [commutators + basechange]: 203us.
TIMER [actualiza rmm]: 257us.
TIMER [diis]: 85us.
TIMER [scf - fock diagonalization]: 1481us.
TIMER [dspev]: 1499us.
TIMER [coeff]: 59us.
TIMER [dens_GPU]: 484us.
TIMER [otras cosas]: 496us.
TIMER [Total iter]: 103082us.
iteracion total: 57319us.
XC energy: 0
TIMER [commutators + basechange]: 206us.
TIMER [actualiza rmm]: 260us.
TIMER [diis]: 95us.
TIMER [scf - fock diagonalization]: 576us.
TIMER [dspev]: 593us.
TIMER [coeff]: 59us.
TIMER [dens_GPU]: 58us.
TIMER [otras cosas]: 67us.
TIMER [Total iter]: 71417us.
iteracion total: 86256us.
XC energy: 0
TIMER [commutators + basechange]: 203us.
TIMER [actualiza rmm]: 255us.
TIMER [diis]: 105us.
TIMER [scf - fock diagonalization]: 820us.
TIMER [dspev]: 838us.
TIMER [coeff]: 59us.
TIMER [dens_GPU]: 59us.
TIMER [otras cosas]: 67us.
TIMER [Total iter]: 100590us.
iteracion total: 62147us.
XC energy: 0
TIMER [commutators + basechange]: 205us.
TIMER [actualiza rmm]: 269us.
TIMER [diis]: 120us.
TIMER [scf - fock diagonalization]: 4352us.
TIMER [dspev]: 4384us.
TIMER [coeff]: 63us.
TIMER [dens_GPU]: 1861us.
TIMER [otras cosas]: 1879us.
TIMER [Total iter]: 95544us.
iteracion total: 88686us.
XC energy: 0
TIMER [commutators + basechange]: 209us.
TIMER [actualiza rmm]: 274us.
TIMER [diis]: 138us.
TIMER [scf - fock diagonalization]: 858us.
TIMER [dspev]: 877us.
TIMER [coeff]: 60us.
TIMER [dens_GPU]: 91us.
TIMER [otras cosas]: 100us.
TIMER [Total iter]: 105098us.
iteracion total: 81822us.
XC energy: 0
TIMER [commutators + basechange]: 214us.
TIMER [actualiza rmm]: 287us.
TIMER [diis]: 149us.
TIMER [scf - fock diagonalization]: 875us.
TIMER [dspev]: 894us.
TIMER [coeff]: 60us.
TIMER [dens_GPU]: 91us.
TIMER [otras cosas]: 100us.
TIMER [Total iter]: 96360us.
iteracion total: 71402us.
XC energy: 0
TIMER [commutators + basechange]: 212us.
TIMER [actualiza rmm]: 284us.
TIMER [diis]: 167us.
TIMER [scf - fock diagonalization]: 2818us.
TIMER [dspev]: 2841us.
TIMER [coeff]: 61us.
TIMER [dens_GPU]: 91us.
TIMER [otras cosas]: 101us.
TIMER [Total iter]: 91213us.
iteracion total: 68310us.
XC energy: 0
TIMER [commutators + basechange]: 213us.
TIMER [actualiza rmm]: 289us.
TIMER [diis]: 176us.
TIMER [scf - fock diagonalization]: 3364us.
TIMER [dspev]: 3388us.
TIMER [coeff]: 60us.
TIMER [dens_GPU]: 85us.
TIMER [otras cosas]: 94us.
TIMER [Total iter]: 86494us.
iteracion total: 95723us.
XC energy: 0
TIMER [commutators + basechange]: 211us.
TIMER [actualiza rmm]: 289us.
TIMER [diis]: 188us.
TIMER [scf - fock diagonalization]: 744us.
TIMER [dspev]: 764us.
TIMER [coeff]: 61us.
TIMER [dens_GPU]: 60us.
TIMER [otras cosas]: 69us.
TIMER [Total iter]: 110130us.
iteracion total: 94705us.
XC energy: 0
TIMER [commutators + basechange]: 208us.
TIMER [actualiza rmm]: 289us.
TIMER [diis]: 207us.
TIMER [scf - fock diagonalization]: 684us.
TIMER [dspev]: 703us.
TIMER [coeff]: 59us.
TIMER [dens_GPU]: 60us.
TIMER [otras cosas]: 69us.
TIMER [Total iter]: 109080us.
iteracion total: 85210us.
XC energy: 0
TIMER [commutators + basechange]: 204us.
TIMER [actualiza rmm]: 283us.
TIMER [diis]: 201us.
TIMER [scf - fock diagonalization]: 7381us.
TIMER [dspev]: 7402us.
TIMER [coeff]: 59us.
TIMER [dens_GPU]: 60us.
TIMER [otras cosas]: 68us.
TIMER [Total iter]: 106406us.
iteracion total: 93882us.
XC energy: 0
TIMER [commutators + basechange]: 210us.
TIMER [actualiza rmm]: 295us.
TIMER [diis]: 230us.
TIMER [scf - fock diagonalization]: 750us.
TIMER [dspev]: 769us.
TIMER [coeff]: 59us.
TIMER [dens_GPU]: 60us.
TIMER [otras cosas]: 69us.
TIMER [Total iter]: 108362us.
iteracion total: 94286us.
XC energy: 0
TIMER [commutators + basechange]: 207us.
TIMER [actualiza rmm]: 294us.
TIMER [diis]: 506us.
TIMER [scf - fock diagonalization]: 583us.
TIMER [dspev]: 601us.
TIMER [coeff]: 60us.
TIMER [dens_GPU]: 59us.
TIMER [otras cosas]: 68us.
TIMER [Total iter]: 108865us.
iteracion total: 80609us.
XC energy: 0
TIMER [commutators + basechange]: 211us.
TIMER [actualiza rmm]: 308us.
TIMER [diis]: 816us.
TIMER [scf - fock diagonalization]: 687us.
TIMER [dspev]: 708us.
TIMER [coeff]: 59us.
TIMER [dens_GPU]: 60us.
TIMER [otras cosas]: 69us.
TIMER [Total iter]: 95610us.
iteracion total: 78072us.
XC energy: 0
TIMER [commutators + basechange]: 207us.
TIMER [actualiza rmm]: 299us.
TIMER [diis]: 330us.
TIMER [scf - fock diagonalization]: 716us.
TIMER [dspev]: 734us.
TIMER [coeff]: 59us.
TIMER [dens_GPU]: 90us.
TIMER [otras cosas]: 99us.
TIMER [Total iter]: 92628us.
iteracion total: 82497us.
XC energy: 0
TIMER [commutators + basechange]: 211us.
TIMER [actualiza rmm]: 304us.
TIMER [diis]: 490us.
TIMER [scf - fock diagonalization]: 578us.
TIMER [dspev]: 596us.
TIMER [coeff]: 60us.
TIMER [dens_GPU]: 60us.
TIMER [otras cosas]: 68us.
TIMER [Total iter]: 99405us.
iteracion total: 69581us.
XC energy: 0
TIMER [commutators + basechange]: 209us.
TIMER [actualiza rmm]: 314us.
TIMER [diis]: 6432us.
TIMER [scf - fock diagonalization]: 117109us.
TIMER [dspev]: 117144us.
TIMER [coeff]: 64us.
TIMER [dens_GPU]: 65us.
TIMER [otras cosas]: 75us.
TIMER [Total iter]: 206645us.
iteracion total: 75495us.
XC energy: 0
TIMER [commutators + basechange]: 209us.
TIMER [actualiza rmm]: 307us.
TIMER [diis]: 369us.
TIMER [scf - fock diagonalization]: 709us.
TIMER [dspev]: 727us.
TIMER [coeff]: 60us.
TIMER [dens_GPU]: 90us.
TIMER [otras cosas]: 99us.
TIMER [Total iter]: 90114us.
iteracion total: 56148us.
XC energy: 0
TIMER [commutators + basechange]: 210us.
TIMER [actualiza rmm]: 315us.
TIMER [diis]: 1032us.
TIMER [scf - fock diagonalization]: 996us.
TIMER [dspev]: 1015us.
TIMER [coeff]: 59us.
TIMER [dens_GPU]: 189us.
TIMER [otras cosas]: 198us.
TIMER [Total iter]: 74876us.
iteracion total: 69156us.
XC energy: 0
TIMER [commutators + basechange]: 209us.
TIMER [actualiza rmm]: 312us.
TIMER [diis]: 391us.
TIMER [scf - fock diagonalization]: 693us.
TIMER [dspev]: 712us.
TIMER [coeff]: 59us.
TIMER [dens_GPU]: 89us.
TIMER [otras cosas]: 98us.
TIMER [Total iter]: 91745us.
 CONVERGED AT          23 ITERATIONS
iteracion total: 75584us.
XC energy: -62.6702
 
    ╔════════════════════════════════════════════╗
    ║        ENERGY CONTRIBUTIONS IN A.U.        ║
    ╠══════════════════╦═════════════════════════╣
    ║   ONE ELECTRON   ║     -1535.5610506       ║
    ╠══════════════════╬═════════════════════════╣
    ║   COULOMB        ║       536.3826758       ║
    ╠══════════════════╬═════════════════════════╣
    ║   NUCLEAR        ║       102.0120748       ║
    ╠══════════════════╬═════════════════════════╣
    ║   EXC. - CORR.   ║       -62.6701658       ║
    ╠══════════════════╬═════════════════════════╣
    ║   TOTAL          ║      -959.8364659       ║
    ╚══════════════════╩═════════════════════════╝
 
TIMER [SCF]: 2s. 743718us.
TIMER [SCF_full]: 2s. 743726us.
 Lio  E(H)  -959.836465850622     
 Lio  E(eV)  -26118.4902942002     
TIMER [int1G]: 1091us.
TIMER [intSG]: 363us.
iteracion total: 100434us.
XC energy: -62.6702
TIMER [ExcG]: 100471us.
TIMER [CoulG]: 48531us.
TIMER [int3G]: 149409us.
 

hybrid: Energy Decomposition (eV):
Esiesta:     -26118.490294

hybrid: Total Free Atoms:      6

hybrid: Atomic forces (eV/Ang):
     1   -7.107869   -3.378937   -8.716033
     2   -1.553989    3.923589    5.236167
     3    0.454716    2.514636   -0.648560
     4    3.027999    1.160796   -1.687234
     5    0.139430   -0.087158    0.173948
     6    5.125905   -4.208615    5.789951
-------------------------------------------
 Tot    0.086192   -0.075688    0.148239
-------------------------------------------
 Max    8.716033  free, atom      1
 Res    3.951210  sqrt( Sum f_i^2 / 3N )
-------------------------------------------
 Max    8.716033  cons, atom      1

iocg: Reading CG continuation file
 centrando sistema
  Econtribution          0.000000       -26118.490294            0.000000            0.000000            0.000000            0.000000       -26118.490294
<====== Deinitializing G2G ======>
>> End of run:   1-DEC-2017  16:38:00
HYBRID 1.1.17 -- [ MMxQM w/ LA ] (31 Ago 2005)
Architecture  : 
Compiler flags: ifort -w -O2 -mp
SERIAL version

hybrid: Running in serial mode
>> Start of run:   1-DEC-2017  17:04:08

                           ***********************       
                           *  WELCOME TO HYBRID  *       
                           ***********************       

reinit: Reading from standard input
************************** Dump of input data file ****************************
SystemName     cut5
SystemLabel    cut5
CenterMolecule T
NumberOfAtoms         6
NumberOfSpecies      3
NetCharge -1.0
FixSpin  T
TotalSpin 0.0
MD.MaxForceTol    0.04 eV/Ang
NumberOfSolventAtoms      0
%block ChemicalSpeciesLabel
       1   6  C
       2   1  H
       3  17  Cl
%endblock ChemicalSpeciesLabel
AtomicCoordinatesFormat  Ang
%block AtomicCoordinatesAndAtomicSpecies
  35.68700  34.50600  35.99000         1
  35.98000  34.12000  35.08700         2
  36.08900  35.73700  36.24600         2
  34.74800  34.44800  36.44800         2
  33.49600  36.20600  33.44400         3
  36.78400  33.67400  37.23300         3
%endblock AtomicCoordinatesAndAtomicSpecies
%block SoluteAtomTypes
  CT  C1    CHC
  HC  H1    CHC
  HC  H2    CHC
  HC  H3    CHC
  Cl  CL    CHC
  Cl  CL    CLO
%endblock SoluteAtomTypes
PAO.BasisType split
PAO.BasisSize       DZP
PAO.EnergyShift      25 meV
PAO.SplitNorm       0.15
WriteMDXmol F
WriteMullikenPop 0
XC.functional       GGA
XC.authors          PBE
MeshCutoff         150.0 Ry
SpinPolarized        T
MaxSCFIterations    80
DM.MixingWeight      0.1
DM.NumberPulay       3
DM.UseSaveDM   T
MD.USeSaveXV   T
MD.UseSaveCG   T
LongOutput    F
MD.TypeOfRun    CG
MD.NumCGsteps   0
%block CutOffRadius
QM  0.2
QMMM 100.0
MM 80.0
BLO 80.0
%endblock CutOffRadius
%block SolventInput
%endblock SolventInput
************************** End of input data file *****************************

reinit: -----------------------------------------------------------------------
reinit: System Name: cut5                                                       
reinit: -----------------------------------------------------------------------
reinit: System Label: cut5                
reinit: -----------------------------------------------------------------------

hybrid: Running with no MM atoms
 
read:***********************************************************************
read: Atomic-coordinates input format  =     Cartesian coordinates (in Ang)
read: Total number of electrons        =    22
read: Dynamics option                  =     CG coord. optimization
read: Use continuation files for CG    =     T
read: Use continuation files for XV    =     T
read: Maximum number of CG moves       =     0
read: Max atomic displ per move        =     0.2000  Bohr
read: Force tolerance                  =     0.0016  Ry/Bohr
read: Write coordinates each           =     1  steps
read: Mulliken population analysis     =     0
read: MM x QM steps                    =     1
read: Write forces QM-MM               =     1
read: ***********************************************************************
 buscando cut5.XV                          

ioxv: Reading coordinates and velocities from file
 File lio.in               not found. Using defaults.
<====== Initializing G2G ======>
GPU Device used: GeForce GTX 580
Kernels: gpu
Kernels: cpu
Using 3 CPU Threads and 1 GPU Threads
 JOB STARTED NOW
vie dic  1 17:04:08 ART 2017
basis set corresponding to Z   7 was not used
basis set corresponding to Z  26 was not used
basis set corresponding to Z  16 was not used
basis set corresponding to Z   8 was not used
<======= GPU Code Initialization ========>
atoms: 6
max atoms: 6
number of gaussians: 59
do_forces: false
s: 17 p: 8 d: 3
m: 59 nco: 22
 nco: 22
density basis: s: 37 p: 11 d: 11
density basis: m: 136
Using device 0 for analytic integral calculations

hybrid: unit cell vectors (Ang) from siesta run:
        0.000000    0.000000    0.000000
        0.000000    0.000000    0.000000
        0.000000    0.000000    0.000000

hybrid:                 ==============================
                            Begin CG move =      0
                        ==============================
 nivel de optimizacion:            3
 defino cuts 
 doing SCF_in
 atoms QM, MM, totals           6           0           6
 doing SCF? T
 doing forces? T
Weights: 365011us.
Particion 0: 5599740
Particion 1: 5590500
Particion 2: 5546290
Relacion max / min = 1.009637
--> Thread OMP: 4
--> Thread CPU: 3
--> Thread GPU: 1
--> Correccion de cubos chicos: 250000
--> Puntos de separacion: 200
Timer functions: 1999us.
MM point charges: 0
TIMER [aint_qmmm_fock]: 41490us.
TIMER [cholesky]: 6703us.
TIMER [initial guess]: 2326us.
iteracion total: 423873us.
XC energy: 0
TIMER [commutators + basechange]: 219us.
TIMER [Fock damping]: 6192us.
TIMER [actualiza rmm]: 6488us.
TIMER [scf - fock diagonalization]: 1177us.
TIMER [dspev]: 1198us.
TIMER [coeff]: 68us.
TIMER [dens_GPU]: 66us.
TIMER [otras cosas]: 76us.
TIMER [Total iter]: 487809us.
iteracion total: 84983us.
XC energy: 0
TIMER [commutators + basechange]: 205us.
TIMER [Fock damping]: 634us.
TIMER [actualiza rmm]: 892us.
TIMER [scf - fock diagonalization]: 569us.
TIMER [dspev]: 587us.
TIMER [coeff]: 59us.
TIMER [dens_GPU]: 58us.
TIMER [otras cosas]: 67us.
TIMER [Total iter]: 99691us.
iteracion total: 76833us.
XC energy: 0
TIMER [commutators + basechange]: 206us.
TIMER [actualiza rmm]: 257us.
TIMER [diis]: 153us.
TIMER [scf - fock diagonalization]: 2921us.
TIMER [dspev]: 2940us.
TIMER [coeff]: 59us.
TIMER [dens_GPU]: 59us.
TIMER [otras cosas]: 68us.
TIMER [Total iter]: 93350us.
iteracion total: 72098us.
XC energy: 0
TIMER [commutators + basechange]: 205us.
TIMER [actualiza rmm]: 258us.
TIMER [diis]: 94us.
TIMER [scf - fock diagonalization]: 593us.
TIMER [dspev]: 611us.
TIMER [coeff]: 59us.
TIMER [dens_GPU]: 58us.
TIMER [otras cosas]: 67us.
TIMER [Total iter]: 86250us.
iteracion total: 55825us.
XC energy: 0
TIMER [commutators + basechange]: 207us.
TIMER [actualiza rmm]: 261us.
TIMER [diis]: 108us.
TIMER [scf - fock diagonalization]: 731us.
TIMER [dspev]: 749us.
TIMER [coeff]: 59us.
TIMER [dens_GPU]: 90us.
TIMER [otras cosas]: 98us.
TIMER [Total iter]: 70152us.
iteracion total: 77981us.
XC energy: 0
TIMER [commutators + basechange]: 204us.
TIMER [actualiza rmm]: 263us.
TIMER [diis]: 118us.
TIMER [scf - fock diagonalization]: 890us.
TIMER [dspev]: 910us.
TIMER [coeff]: 59us.
TIMER [dens_GPU]: 90us.
TIMER [otras cosas]: 99us.
TIMER [Total iter]: 92471us.
iteracion total: 87066us.
XC energy: 0
TIMER [commutators + basechange]: 204us.
TIMER [actualiza rmm]: 265us.
TIMER [diis]: 131us.
TIMER [scf - fock diagonalization]: 789us.
TIMER [dspev]: 807us.
TIMER [coeff]: 59us.
TIMER [dens_GPU]: 58us.
TIMER [otras cosas]: 67us.
TIMER [Total iter]: 101446us.
iteracion total: 59634us.
XC energy: 0
TIMER [commutators + basechange]: 206us.
TIMER [actualiza rmm]: 270us.
TIMER [diis]: 139us.
TIMER [scf - fock diagonalization]: 564us.
TIMER [dspev]: 582us.
TIMER [coeff]: 59us.
TIMER [dens_GPU]: 57us.
TIMER [otras cosas]: 66us.
TIMER [Total iter]: 73782us.
iteracion total: 83472us.
XC energy: 0
TIMER [commutators + basechange]: 205us.
TIMER [actualiza rmm]: 273us.
TIMER [diis]: 153us.
TIMER [scf - fock diagonalization]: 758us.
TIMER [dspev]: 776us.
TIMER [coeff]: 59us.
TIMER [dens_GPU]: 59us.
TIMER [otras cosas]: 67us.
TIMER [Total iter]: 97844us.
iteracion total: 90064us.
XC energy: 0
TIMER [commutators + basechange]: 208us.
TIMER [actualiza rmm]: 285us.
TIMER [diis]: 171us.
TIMER [scf - fock diagonalization]: 729us.
TIMER [dspev]: 748us.
TIMER [coeff]: 59us.
TIMER [dens_GPU]: 90us.
TIMER [otras cosas]: 99us.
TIMER [Total iter]: 104473us.
iteracion total: 56397us.
XC energy: 0
TIMER [commutators + basechange]: 205us.
TIMER [actualiza rmm]: 278us.
TIMER [diis]: 176us.
TIMER [scf - fock diagonalization]: 1733us.
TIMER [dspev]: 1752us.
TIMER [coeff]: 59us.
TIMER [dens_GPU]: 195us.
TIMER [otras cosas]: 204us.
TIMER [Total iter]: 73929us.
iteracion total: 85150us.
XC energy: 0
TIMER [commutators + basechange]: 212us.
TIMER [actualiza rmm]: 287us.
TIMER [diis]: 190us.
TIMER [scf - fock diagonalization]: 814us.
TIMER [dspev]: 832us.
TIMER [coeff]: 59us.
TIMER [dens_GPU]: 90us.
TIMER [otras cosas]: 99us.
TIMER [Total iter]: 99774us.
iteracion total: 86028us.
XC energy: 0
TIMER [commutators + basechange]: 207us.
TIMER [actualiza rmm]: 287us.
TIMER [diis]: 202us.
TIMER [scf - fock diagonalization]: 587us.
TIMER [dspev]: 605us.
TIMER [coeff]: 59us.
TIMER [dens_GPU]: 59us.
TIMER [otras cosas]: 68us.
TIMER [Total iter]: 100292us.
iteracion total: 56554us.
XC energy: 0
TIMER [commutators + basechange]: 204us.
TIMER [actualiza rmm]: 281us.
TIMER [diis]: 209us.
TIMER [scf - fock diagonalization]: 588us.
TIMER [dspev]: 607us.
TIMER [coeff]: 59us.
TIMER [dens_GPU]: 58us.
TIMER [otras cosas]: 66us.
TIMER [Total iter]: 70844us.
iteracion total: 94444us.
XC energy: 0
TIMER [commutators + basechange]: 206us.
TIMER [actualiza rmm]: 293us.
TIMER [diis]: 222us.
TIMER [scf - fock diagonalization]: 135218us.
TIMER [dspev]: 135253us.
TIMER [coeff]: 63us.
TIMER [dens_GPU]: 13531us.
TIMER [otras cosas]: 13546us.
TIMER [Total iter]: 257306us.
iteracion total: 65611us.
XC energy: 0
TIMER [commutators + basechange]: 204us.
TIMER [actualiza rmm]: 287us.
TIMER [diis]: 298us.
TIMER [scf - fock diagonalization]: 714us.
TIMER [dspev]: 732us.
TIMER [coeff]: 59us.
TIMER [dens_GPU]: 89us.
TIMER [otras cosas]: 98us.
TIMER [Total iter]: 80178us.
 CONVERGED AT          16 ITERATIONS
iteracion total: 71351us.
XC energy: -62.6506
 
    ╔════════════════════════════════════════════╗
    ║        ENERGY CONTRIBUTIONS IN A.U.        ║
    ╠══════════════════╦═════════════════════════╣
    ║   ONE ELECTRON   ║     -1532.5888135       ║
    ╠══════════════════╬═════════════════════════╣
    ║   COULOMB        ║       534.9053298       ║
    ╠══════════════════╬═════════════════════════╣
    ║   NUCLEAR        ║       100.4815449       ║
    ╠══════════════════╬═════════════════════════╣
    ║   EXC. - CORR.   ║       -62.6505579       ║
    ╠══════════════════╬═════════════════════════╣
    ║   TOTAL          ║      -959.8524967       ║
    ╚══════════════════╩═════════════════════════╝
 
TIMER [SCF]: 2s. 558168us.
TIMER [SCF_full]: 2s. 558174us.
 Lio  E(H)  -959.852496669732     
 Lio  E(eV)  -26118.9265151693     
TIMER [int1G]: 1106us.
TIMER [intSG]: 363us.
iteracion total: 117892us.
XC energy: -62.6506
TIMER [ExcG]: 117926us.
TIMER [CoulG]: 43246us.
TIMER [int3G]: 161584us.
 

hybrid: Energy Decomposition (eV):
Esiesta:     -26118.926515

hybrid: Total Free Atoms:      6

hybrid: Atomic forces (eV/Ang):
     1    0.172013    3.790004   -2.010928
     2   -1.547240    2.212482    2.161960
     3   -1.476449   -3.644703   -1.837646
     4    0.097219    0.187658   -1.444401
     5    0.167669   -0.130216    0.203836
     6    2.632063   -2.431494    2.975530
-------------------------------------------
 Tot    0.045274   -0.016270    0.048351
-------------------------------------------
 Max    3.790004  free, atom      1
 Res    2.015945  sqrt( Sum f_i^2 / 3N )
-------------------------------------------
 Max    3.790004  cons, atom      1

iocg: Reading CG continuation file

cgvc: Finished line minimization    1.  Mean atomic displacement =    0.1168
 centrando sistema
  Econtribution          0.000000       -26118.926515            0.000000            0.000000            0.000000            0.000000       -26118.926515
<====== Deinitializing G2G ======>
>> End of run:   1-DEC-2017  17:04:11
